 Entering Gaussian System, Link 0=/uufs/chpc.utah.edu/sys/pkg/gaussian09/D01/EM64TL/g09/g09
 Input=Klapotke02_TZ02_1.com
 Output=Klapotke02_TZ02_1.log
 Initial command:
 /uufs/chpc.utah.edu/sys/pkg/gaussian09/D01/EM64TL/g09/l1.exe "/scratch/general/lustre/u6023034/2614049/lonepeak.peaks/Gau-24984.inp" -scrdir="/scratch/general/lustre/u6023034/2614049/lonepeak.peaks/"
 Entering Link 1 = /uufs/chpc.utah.edu/sys/pkg/gaussian09/D01/EM64TL/g09/l1.exe PID=     24986.
  
 Copyright (c) 1988,1990,1992,1993,1995,1998,2003,2009,2013,
            Gaussian, Inc.  All Rights Reserved.
  
 This is part of the Gaussian(R) 09 program.  It is based on
 the Gaussian(R) 03 system (copyright 2003, Gaussian, Inc.),
 the Gaussian(R) 98 system (copyright 1998, Gaussian, Inc.),
 the Gaussian(R) 94 system (copyright 1995, Gaussian, Inc.),
 the Gaussian 92(TM) system (copyright 1992, Gaussian, Inc.),
 the Gaussian 90(TM) system (copyright 1990, Gaussian, Inc.),
 the Gaussian 88(TM) system (copyright 1988, Gaussian, Inc.),
 the Gaussian 86(TM) system (copyright 1986, Carnegie Mellon
 University), and the Gaussian 82(TM) system (copyright 1983,
 Carnegie Mellon University). Gaussian is a federally registered
 trademark of Gaussian, Inc.
  
 This software contains proprietary and confidential information,
 including trade secrets, belonging to Gaussian, Inc.
  
 This software is provided under written license and may be
 used, copied, transmitted, or stored only in accord with that
 written license.
  
 The following legend is applicable only to US Government
 contracts under FAR:
  
                    RESTRICTED RIGHTS LEGEND
  
 Use, reproduction and disclosure by the US Government is
 subject to restrictions as set forth in subparagraphs (a)
 and (c) of the Commercial Computer Software - Restricted
 Rights clause in FAR 52.227-19.
  
 Gaussian, Inc.
 340 Quinnipiac St., Bldg. 40, Wallingford CT 06492
  
  
 ---------------------------------------------------------------
 Warning -- This program may not be used in any manner that
 competes with the business of Gaussian, Inc. or will provide
 assistance to any competitor of Gaussian, Inc.  The licensee
 of this program is prohibited from giving any competitor of
 Gaussian, Inc. access to this program.  By using this program,
 the user acknowledges that Gaussian, Inc. is engaged in the
 business of creating and licensing software in the field of
 computational chemistry and represents and warrants to the
 licensee that it is not a competitor of Gaussian, Inc. and that
 it will not use this program in any manner prohibited above.
 ---------------------------------------------------------------
  

 Cite this work as:
 Gaussian 09, Revision D.01,
 M. J. Frisch, G. W. Trucks, H. B. Schlegel, G. E. Scuseria, 
 M. A. Robb, J. R. Cheeseman, G. Scalmani, V. Barone, B. Mennucci, 
 G. A. Petersson, H. Nakatsuji, M. Caricato, X. Li, H. P. Hratchian, 
 A. F. Izmaylov, J. Bloino, G. Zheng, J. L. Sonnenberg, M. Hada, 
 M. Ehara, K. Toyota, R. Fukuda, J. Hasegawa, M. Ishida, T. Nakajima, 
 Y. Honda, O. Kitao, H. Nakai, T. Vreven, J. A. Montgomery, Jr., 
 J. E. Peralta, F. Ogliaro, M. Bearpark, J. J. Heyd, E. Brothers, 
 K. N. Kudin, V. N. Staroverov, T. Keith, R. Kobayashi, J. Normand, 
 K. Raghavachari, A. Rendell, J. C. Burant, S. S. Iyengar, J. Tomasi, 
 M. Cossi, N. Rega, J. M. Millam, M. Klene, J. E. Knox, J. B. Cross, 
 V. Bakken, C. Adamo, J. Jaramillo, R. Gomperts, R. E. Stratmann, 
 O. Yazyev, A. J. Austin, R. Cammi, C. Pomelli, J. W. Ochterski, 
 R. L. Martin, K. Morokuma, V. G. Zakrzewski, G. A. Voth, 
 P. Salvador, J. J. Dannenberg, S. Dapprich, A. D. Daniels, 
 O. Farkas, J. B. Foresman, J. V. Ortiz, J. Cioslowski, 
 and D. J. Fox, Gaussian, Inc., Wallingford CT, 2013.
 
 ******************************************
 Gaussian 09:  EM64L-G09RevD.01 24-Apr-2013
                 9-Apr-2021 
 ******************************************
 %NProcShared=12
 Will use up to   12 processors via shared memory.
 %mem=16GB
 %chk=Klapotke02_TZ02_1.chk
 ----------------------------------------------------------------------
 # B3LYP/6-31+G(d,p) empiricaldispersion=GD3 int=(grid=ultrafine) opt f
 req=noraman
 ----------------------------------------------------------------------
 1/14=-1,18=20,19=15,26=4,38=1/1,3;
 2/9=110,12=2,17=6,18=5,40=1/2;
 3/5=1,6=6,7=111,11=2,16=1,25=1,30=1,71=1,74=-5,75=-5,124=31/1,2,3;
 4//1;
 5/5=2,38=5/2;
 6/7=2,8=2,9=2,10=2,28=1/1;
 7//1,2,3,16;
 1/14=-1,18=20,19=15,26=4/3(2);
 2/9=110/2;
 99//99;
 2/9=110/2;
 3/5=1,6=6,7=111,11=2,16=1,25=1,30=1,71=1,74=-5,75=-5,124=31/1,2,3;
 4/5=5,16=3,69=1/1;
 5/5=2,38=5/2;
 7//1,2,3,16;
 1/14=-1,18=20,19=15,26=4/3(-5);
 2/9=110/2;
 6/7=2,8=2,9=2,10=2,19=2,28=1/1;
 99/9=1/99;
 ---------------------
 Klapotke02_TZ02_1.mol
 ---------------------
 Symbolic Z-matrix:
 Charge =  0 Multiplicity = 1
 C                    -2.57603  -0.97291  -0.50652 
 N                    -2.80113   0.25789  -0.92932 
 N                    -1.55123   0.79079  -1.16582 
 N                    -0.71853  -0.20221  -0.84802 
 N                    -1.31253  -1.32631  -0.43252 
 C                     0.72747  -0.06671  -0.93742 
 N                     1.35577   0.18119   0.35468 
 N                     2.53227  -0.37681   0.65568 
 N                     2.82927   0.10089   1.91838 
 N                     1.82277   0.95369   2.36478 
 C                     0.94877   0.98579   1.39208 
 H                    -3.38043  -1.64331  -0.23862 
 H                     0.97387   0.76209  -1.60132 
 H                     1.13067  -0.97921  -1.37942 
 H                     0.01907   1.53519   1.35338 
 

 GradGradGradGradGradGradGradGradGradGradGradGradGradGradGradGradGradGrad
 Berny optimization.
 Initialization pass.
                           ----------------------------
                           !    Initial Parameters    !
                           ! (Angstroms and Degrees)  !
 --------------------------                            --------------------------
 ! Name  Definition              Value          Derivative Info.                !
 --------------------------------------------------------------------------------
 ! R1    R(1,2)                  1.3207         estimate D2E/DX2                !
 ! R2    R(1,5)                  1.3141         estimate D2E/DX2                !
 ! R3    R(1,12)                 1.0809         estimate D2E/DX2                !
 ! R4    R(2,3)                  1.3792         estimate D2E/DX2                !
 ! R5    R(3,4)                  1.3343         estimate D2E/DX2                !
 ! R6    R(4,5)                  1.3376         estimate D2E/DX2                !
 ! R7    R(4,6)                  1.4551         estimate D2E/DX2                !
 ! R8    R(6,7)                  1.458          estimate D2E/DX2                !
 ! R9    R(6,13)                 1.0901         estimate D2E/DX2                !
 ! R10   R(6,14)                 1.0911         estimate D2E/DX2                !
 ! R11   R(7,8)                  1.3365         estimate D2E/DX2                !
 ! R12   R(7,11)                 1.3745         estimate D2E/DX2                !
 ! R13   R(8,9)                  1.3823         estimate D2E/DX2                !
 ! R14   R(9,10)                 1.3927         estimate D2E/DX2                !
 ! R15   R(10,11)                1.3081         estimate D2E/DX2                !
 ! R16   R(11,15)                1.0806         estimate D2E/DX2                !
 ! A1    A(2,1,5)              115.6282         estimate D2E/DX2                !
 ! A2    A(2,1,12)             122.0406         estimate D2E/DX2                !
 ! A3    A(5,1,12)             122.3312         estimate D2E/DX2                !
 ! A4    A(1,2,3)              105.1006         estimate D2E/DX2                !
 ! A5    A(2,3,4)              103.7196         estimate D2E/DX2                !
 ! A6    A(3,4,5)              114.9782         estimate D2E/DX2                !
 ! A7    A(3,4,6)              122.4273         estimate D2E/DX2                !
 ! A8    A(5,4,6)              122.5928         estimate D2E/DX2                !
 ! A9    A(1,5,4)              100.5732         estimate D2E/DX2                !
 ! A10   A(4,6,7)              112.9314         estimate D2E/DX2                !
 ! A11   A(4,6,13)             109.4408         estimate D2E/DX2                !
 ! A12   A(4,6,14)             108.3141         estimate D2E/DX2                !
 ! A13   A(7,6,13)             108.2428         estimate D2E/DX2                !
 ! A14   A(7,6,14)             109.9952         estimate D2E/DX2                !
 ! A15   A(13,6,14)            107.7933         estimate D2E/DX2                !
 ! A16   A(6,7,8)              120.5283         estimate D2E/DX2                !
 ! A17   A(6,7,11)             129.8517         estimate D2E/DX2                !
 ! A18   A(8,7,11)             109.5781         estimate D2E/DX2                !
 ! A19   A(7,8,9)              104.5122         estimate D2E/DX2                !
 ! A20   A(8,9,10)             110.4339         estimate D2E/DX2                !
 ! A21   A(9,10,11)            105.0437         estimate D2E/DX2                !
 ! A22   A(7,11,10)            110.428          estimate D2E/DX2                !
 ! A23   A(7,11,15)            121.692          estimate D2E/DX2                !
 ! A24   A(10,11,15)           127.8769         estimate D2E/DX2                !
 ! D1    D(5,1,2,3)              0.0069         estimate D2E/DX2                !
 ! D2    D(12,1,2,3)           179.9505         estimate D2E/DX2                !
 ! D3    D(2,1,5,4)              0.0928         estimate D2E/DX2                !
 ! D4    D(12,1,5,4)          -179.8506         estimate D2E/DX2                !
 ! D5    D(1,2,3,4)             -0.1047         estimate D2E/DX2                !
 ! D6    D(2,3,4,5)              0.1774         estimate D2E/DX2                !
 ! D7    D(2,3,4,6)           -179.3587         estimate D2E/DX2                !
 ! D8    D(3,4,5,1)             -0.1681         estimate D2E/DX2                !
 ! D9    D(6,4,5,1)            179.3672         estimate D2E/DX2                !
 ! D10   D(3,4,6,7)            100.7154         estimate D2E/DX2                !
 ! D11   D(3,4,6,13)           -19.9337         estimate D2E/DX2                !
 ! D12   D(3,4,6,14)          -137.2031         estimate D2E/DX2                !
 ! D13   D(5,4,6,7)            -78.7855         estimate D2E/DX2                !
 ! D14   D(5,4,6,13)           160.5653         estimate D2E/DX2                !
 ! D15   D(5,4,6,14)            43.2959         estimate D2E/DX2                !
 ! D16   D(4,6,7,8)            141.8885         estimate D2E/DX2                !
 ! D17   D(4,6,7,11)           -40.7287         estimate D2E/DX2                !
 ! D18   D(13,6,7,8)           -96.7816         estimate D2E/DX2                !
 ! D19   D(13,6,7,11)           80.6011         estimate D2E/DX2                !
 ! D20   D(14,6,7,8)            20.756          estimate D2E/DX2                !
 ! D21   D(14,6,7,11)         -161.8612         estimate D2E/DX2                !
 ! D22   D(6,7,8,9)            178.4395         estimate D2E/DX2                !
 ! D23   D(11,7,8,9)             0.5718         estimate D2E/DX2                !
 ! D24   D(6,7,11,10)         -178.2926         estimate D2E/DX2                !
 ! D25   D(6,7,11,15)            2.3077         estimate D2E/DX2                !
 ! D26   D(8,7,11,10)           -0.6852         estimate D2E/DX2                !
 ! D27   D(8,7,11,15)          179.915          estimate D2E/DX2                !
 ! D28   D(7,8,9,10)            -0.2922         estimate D2E/DX2                !
 ! D29   D(8,9,10,11)           -0.1087         estimate D2E/DX2                !
 ! D30   D(9,10,11,7)            0.4674         estimate D2E/DX2                !
 ! D31   D(9,10,11,15)         179.8203         estimate D2E/DX2                !
 --------------------------------------------------------------------------------
 Trust Radius=3.00D-01 FncErr=1.00D-07 GrdErr=1.00D-06
 Number of steps in this run=     81 maximum allowed number of steps=    100.
 GradGradGradGradGradGradGradGradGradGradGradGradGradGradGradGradGradGrad

                          Input orientation:                          
 ---------------------------------------------------------------------
 Center     Atomic      Atomic             Coordinates (Angstroms)
 Number     Number       Type             X           Y           Z
 ---------------------------------------------------------------------
      1          6           0       -2.576030   -0.972910   -0.506520
      2          7           0       -2.801130    0.257890   -0.929320
      3          7           0       -1.551230    0.790790   -1.165820
      4          7           0       -0.718530   -0.202210   -0.848020
      5          7           0       -1.312530   -1.326310   -0.432520
      6          6           0        0.727470   -0.066710   -0.937420
      7          7           0        1.355770    0.181190    0.354680
      8          7           0        2.532270   -0.376810    0.655680
      9          7           0        2.829270    0.100890    1.918380
     10          7           0        1.822770    0.953690    2.364780
     11          6           0        0.948770    0.985790    1.392080
     12          1           0       -3.380430   -1.643310   -0.238620
     13          1           0        0.973870    0.762090   -1.601320
     14          1           0        1.130670   -0.979210   -1.379420
     15          1           0        0.019070    1.535190    1.353380
 ---------------------------------------------------------------------
                    Distance matrix (angstroms):
                    1          2          3          4          5
     1  C    0.000000
     2  N    1.320719   0.000000
     3  N    2.143719   1.379190   0.000000
     4  N    2.039830   2.134367   1.334329   0.000000
     5  N    1.314078   2.229895   2.253180   1.337564   0.000000
     6  C    3.452533   3.543508   2.445393   1.455084   2.450126
     7  N    4.187202   4.351363   3.336792   2.428210   3.164185
     8  N    5.272644   5.600020   4.621269   3.585987   4.107093
     9  N    6.020835   6.311533   5.401577   4.509071   4.971734
    10  N    5.595140   5.719763   4.886261   4.256336   4.780522
    11  C    4.457062   4.469954   3.582021   3.034680   3.713280
    12  H    1.080864   2.104095   3.182847   3.087693   2.101023
    13  H    4.100073   3.867354   2.562541   2.088433   3.309854
    14  H    3.808099   4.146331   3.220421   2.075007   2.643166
    15  H    4.060091   3.846523   3.060448   2.899789   3.626400
                    6          7          8          9         10
     6  C    0.000000
     7  N    1.457991   0.000000
     8  N    2.427227   1.336457   0.000000
     9  N    3.549823   2.150072   1.382323   0.000000
    10  N    3.625662   2.203485   2.279176   1.392689   0.000000
    11  C    2.565794   1.374492   2.215048   2.143903   1.308072
    12  H    4.455203   5.110029   6.112595   6.801122   6.371451
    13  H    1.090131   2.075868   2.969807   4.033359   4.060455
    14  H    1.091142   2.098643   2.543423   3.863592   4.270145
    15  H    2.883692   2.148833   3.233992   3.205256   2.148117
                   11         12         13         14         15
    11  C    0.000000
    12  H    5.321026   0.000000
    13  H    3.001852   5.157793   0.000000
    14  H    3.402282   4.700263   1.762371   0.000000
    15  H    1.080592   4.918732   3.199934   3.876346   0.000000
 Stoichiometry    C3H4N8
 Framework group  C1[X(C3H4N8)]
 Deg. of freedom    39
 Full point group                 C1      NOp   1
 Largest Abelian subgroup         C1      NOp   1
 Largest concise Abelian subgroup C1      NOp   1
                         Standard orientation:                         
 ---------------------------------------------------------------------
 Center     Atomic      Atomic             Coordinates (Angstroms)
 Number     Number       Type             X           Y           Z
 ---------------------------------------------------------------------
      1          6           0       -2.778671    0.238554    0.920847
      2          7           0       -3.010776    0.724268   -0.285183
      3          7           0       -1.963002    0.274846   -1.061297
      4          7           0       -1.219671   -0.434075   -0.209638
      5          7           0       -1.690238   -0.487817    1.041264
      6          6           0        0.015549   -1.089977   -0.611252
      7          7           0        1.206847   -0.344444   -0.223016
      8          7           0        2.299608   -0.984955    0.203291
      9          7           0        3.219044    0.019408    0.441426
     10          7           0        2.667060    1.263703    0.147104
     11          6           0        1.450092    1.007885   -0.258602
     12          1           0       -3.441879    0.428477    1.752923
     13          1           0        0.026566   -1.210801   -1.694610
     14          1           0        0.036195   -2.085263   -0.164521
     15          1           0        0.695191    1.712276   -0.577409
 ---------------------------------------------------------------------
 Rotational constants (GHZ):      3.4409156      0.6564828      0.6321308
 Standard basis: 6-31+G(d,p) (6D, 7F)
 There are   229 symmetry adapted cartesian basis functions of A   symmetry.
 There are   229 symmetry adapted basis functions of A   symmetry.
   229 basis functions,   380 primitive gaussians,   229 cartesian basis functions
    39 alpha electrons       39 beta electrons
       nuclear repulsion energy       584.8769629575 Hartrees.
 NAtoms=   15 NActive=   15 NUniq=   15 SFac= 1.00D+00 NAtFMM=   60 NAOKFM=F Big=F
 Integral buffers will be    131072 words long.
 Raffenetti 2 integral format.
 Two-electron integral symmetry is turned on.
 Nuclear repulsion after empirical dispersion term =      584.8676080721 Hartrees.
 One-electron integrals computed using PRISM.
 NBasis=   229 RedAO= T EigKep=  3.96D-05  NBF=   229
 NBsUse=   229 1.00D-06 EigRej= -1.00D+00 NBFU=   229
 ExpMin= 4.38D-02 ExpMax= 4.17D+03 ExpMxC= 6.27D+02 IAcc=3 IRadAn=         5 AccDes= 0.00D+00
 Harris functional with IExCor=  402 and IRadAn=       5 diagonalized for initial guess.
 HarFok:  IExCor=  402 AccDes= 0.00D+00 IRadAn=         5 IDoV= 1 UseB2=F ITyADJ=14
 ICtDFT=  3500011 ScaDFX=  1.000000  1.000000  1.000000  1.000000
 FoFCou: FMM=F IPFlag=           0 FMFlag=      100000 FMFlg1=           0
         NFxFlg=           0 DoJE=T BraDBF=F KetDBF=T FulRan=T
         wScrn=  0.000000 ICntrl=     500 IOpCl=  0 I1Cent=   200000004 NGrid=           0
         NMat0=    1 NMatS0=      1 NMatT0=    0 NMatD0=    1 NMtDS0=    0 NMtDT0=    0
 Petite list used in FoFCou.
 Keep R1 ints in memory in canonical form, NReq=353042986.
 Requested convergence on RMS density matrix=1.00D-08 within 128 cycles.
 Requested convergence on MAX density matrix=1.00D-06.
 Requested convergence on             energy=1.00D-06.
 No special actions if energy rises.
 SCF Done:  E(RB3LYP) =  -554.640855103     A.U. after   15 cycles
            NFock= 15  Conv=0.38D-08     -V/T= 2.0096

 **********************************************************************

            Population analysis using the SCF density.

 **********************************************************************

 Orbital symmetries:
       Occupied  (A) (A) (A) (A) (A) (A) (A) (A) (A) (A) (A) (A)
                 (A) (A) (A) (A) (A) (A) (A) (A) (A) (A) (A) (A)
                 (A) (A) (A) (A) (A) (A) (A) (A) (A) (A) (A) (A)
                 (A) (A) (A)
       Virtual   (A) (A) (A) (A) (A) (A) (A) (A) (A) (A) (A) (A)
                 (A) (A) (A) (A) (A) (A) (A) (A) (A) (A) (A) (A)
                 (A) (A) (A) (A) (A) (A) (A) (A) (A) (A) (A) (A)
                 (A) (A) (A) (A) (A) (A) (A) (A) (A) (A) (A) (A)
                 (A) (A) (A) (A) (A) (A) (A) (A) (A) (A) (A) (A)
                 (A) (A) (A) (A) (A) (A) (A) (A) (A) (A) (A) (A)
                 (A) (A) (A) (A) (A) (A) (A) (A) (A) (A) (A) (A)
                 (A) (A) (A) (A) (A) (A) (A) (A) (A) (A) (A) (A)
                 (A) (A) (A) (A) (A) (A) (A) (A) (A) (A) (A) (A)
                 (A) (A) (A) (A) (A) (A) (A) (A) (A) (A) (A) (A)
                 (A) (A) (A) (A) (A) (A) (A) (A) (A) (A) (A) (A)
                 (A) (A) (A) (A) (A) (A) (A) (A) (A) (A) (A) (A)
                 (A) (A) (A) (A) (A) (A) (A) (A) (A) (A) (A) (A)
                 (A) (A) (A) (A) (A) (A) (A) (A) (A) (A) (A) (A)
                 (A) (A) (A) (A) (A) (A) (A) (A) (A) (A) (A) (A)
                 (A) (A) (A) (A) (A) (A) (A) (A) (A) (A)
 The electronic state is 1-A.
 Alpha  occ. eigenvalues --  -14.52000 -14.48522 -14.46273 -14.44388 -14.42930
 Alpha  occ. eigenvalues --  -14.42582 -14.41270 -14.39965 -10.34629 -10.30100
 Alpha  occ. eigenvalues --  -10.28813  -1.19281  -1.15158  -1.00398  -0.97660
 Alpha  occ. eigenvalues --   -0.94756  -0.90169  -0.81712  -0.71131  -0.70247
 Alpha  occ. eigenvalues --   -0.69279  -0.64781  -0.60262  -0.58500  -0.54200
 Alpha  occ. eigenvalues --   -0.52533  -0.51349  -0.50728  -0.47459  -0.42176
 Alpha  occ. eigenvalues --   -0.39602  -0.36556  -0.36380  -0.35187  -0.34921
 Alpha  occ. eigenvalues --   -0.34234  -0.33836  -0.32039  -0.31908
 Alpha virt. eigenvalues --   -0.08957  -0.06343  -0.02619  -0.01315  -0.01154
 Alpha virt. eigenvalues --    0.00628   0.00870   0.02623   0.03090   0.04444
 Alpha virt. eigenvalues --    0.05350   0.05494   0.05582   0.06190   0.08296
 Alpha virt. eigenvalues --    0.09000   0.09132   0.10446   0.10885   0.11736
 Alpha virt. eigenvalues --    0.12072   0.13476   0.14564   0.15496   0.15867
 Alpha virt. eigenvalues --    0.16367   0.16455   0.16824   0.17629   0.17885
 Alpha virt. eigenvalues --    0.18591   0.19227   0.19862   0.20256   0.20381
 Alpha virt. eigenvalues --    0.21508   0.21597   0.21970   0.22531   0.23004
 Alpha virt. eigenvalues --    0.23456   0.23930   0.24490   0.24997   0.25392
 Alpha virt. eigenvalues --    0.26326   0.27508   0.28052   0.28993   0.30051
 Alpha virt. eigenvalues --    0.31422   0.31585   0.32583   0.33012   0.33914
 Alpha virt. eigenvalues --    0.34404   0.34524   0.35764   0.36504   0.39837
 Alpha virt. eigenvalues --    0.41941   0.42897   0.44388   0.44699   0.58511
 Alpha virt. eigenvalues --    0.66382   0.67804   0.72428   0.74135   0.75383
 Alpha virt. eigenvalues --    0.77148   0.80405   0.82993   0.83640   0.85507
 Alpha virt. eigenvalues --    0.86136   0.86737   0.87212   0.88241   0.88548
 Alpha virt. eigenvalues --    0.89268   0.90564   0.91038   0.91723   0.93353
 Alpha virt. eigenvalues --    0.94246   0.94529   0.96152   0.96514   0.97496
 Alpha virt. eigenvalues --    0.98229   0.99934   1.00302   1.02178   1.03701
 Alpha virt. eigenvalues --    1.07138   1.08203   1.08633   1.10238   1.13462
 Alpha virt. eigenvalues --    1.18002   1.23078   1.25539   1.27002   1.29839
 Alpha virt. eigenvalues --    1.30231   1.32565   1.33406   1.34567   1.36034
 Alpha virt. eigenvalues --    1.37797   1.39846   1.42229   1.45260   1.48430
 Alpha virt. eigenvalues --    1.49565   1.49827   1.53785   1.56082   1.58655
 Alpha virt. eigenvalues --    1.61098   1.62511   1.70452   1.72155   1.78803
 Alpha virt. eigenvalues --    1.80733   1.84219   1.85647   1.90074   1.93202
 Alpha virt. eigenvalues --    1.95367   1.96712   2.00765   2.02737   2.05795
 Alpha virt. eigenvalues --    2.07439   2.10941   2.11957   2.15404   2.19362
 Alpha virt. eigenvalues --    2.20261   2.22119   2.23669   2.25045   2.26049
 Alpha virt. eigenvalues --    2.28683   2.31338   2.32464   2.35101   2.39432
 Alpha virt. eigenvalues --    2.40047   2.41758   2.49279   2.54357   2.56320
 Alpha virt. eigenvalues --    2.56938   2.58308   2.59613   2.61035   2.65417
 Alpha virt. eigenvalues --    2.67322   2.68489   2.70720   2.72929   2.75533
 Alpha virt. eigenvalues --    2.77103   2.83786   2.86242   2.88523   2.89274
 Alpha virt. eigenvalues --    2.92122   2.95358   3.04549   3.08344   3.15281
 Alpha virt. eigenvalues --    3.28220   3.42167   3.49490   3.52795   3.89776
 Alpha virt. eigenvalues --    3.93920   4.02369   4.03026   4.13421   4.16606
 Alpha virt. eigenvalues --    4.25348   4.29393   4.44379   4.48382   4.57890
          Condensed to atoms (all electrons):
               1          2          3          4          5          6
     1  C    5.204696   0.169873   0.135073  -0.200995   0.243009  -0.032267
     2  N    0.169873   6.919000   0.086104   0.255299  -0.108344  -0.022388
     3  N    0.135073   0.086104   7.054716  -0.230396   0.019592  -0.022949
     4  N   -0.200995   0.255299  -0.230396   7.038844   0.085040   0.087055
     5  N    0.243009  -0.108344   0.019592   0.085040   6.921658   0.074274
     6  C   -0.032267  -0.022388  -0.022949   0.087055   0.074274   5.209908
     7  N   -0.001099  -0.011092   0.030164  -0.133739   0.005475   0.142763
     8  N   -0.000072  -0.005652   0.028662  -0.132725   0.030492   0.081992
     9  N    0.000271   0.000067   0.001641   0.002939   0.004678  -0.036180
    10  N    0.000284  -0.001214  -0.002192  -0.009084  -0.002303   0.016896
    11  C   -0.005404   0.016254  -0.030816   0.103444  -0.007834  -0.181450
    12  H    0.446155  -0.065347   0.017337   0.000921  -0.080265  -0.004693
    13  H   -0.001917   0.000952   0.009308  -0.032040  -0.011342   0.409807
    14  H   -0.000619  -0.000766  -0.007283  -0.047441   0.020868   0.409000
    15  H    0.000637   0.002005  -0.012852   0.016954  -0.000331   0.004899
               7          8          9         10         11         12
     1  C   -0.001099  -0.000072   0.000271   0.000284  -0.005404   0.446155
     2  N   -0.011092  -0.005652   0.000067  -0.001214   0.016254  -0.065347
     3  N    0.030164   0.028662   0.001641  -0.002192  -0.030816   0.017337
     4  N   -0.133739  -0.132725   0.002939  -0.009084   0.103444   0.000921
     5  N    0.005475   0.030492   0.004678  -0.002303  -0.007834  -0.080265
     6  C    0.142763   0.081992  -0.036180   0.016896  -0.181450  -0.004693
     7  N    7.130570  -0.155820   0.083478  -0.060605   0.195347   0.000077
     8  N   -0.155820   7.219029   0.122781   0.106422  -0.269794   0.000034
     9  N    0.083478   0.122781   6.653620   0.127506   0.174956   0.000010
    10  N   -0.060605   0.106422   0.127506   6.728456   0.236712  -0.000013
    11  C    0.195347  -0.269794   0.174956   0.236712   5.369456   0.000464
    12  H    0.000077   0.000034   0.000010  -0.000013   0.000464   0.519818
    13  H   -0.030604  -0.025101   0.003400  -0.002064   0.004438   0.000004
    14  H   -0.063828   0.040035  -0.005081   0.001298  -0.002306  -0.000012
    15  H   -0.085415   0.004766   0.000141  -0.024957   0.417260   0.000001
              13         14         15
     1  C   -0.001917  -0.000619   0.000637
     2  N    0.000952  -0.000766   0.002005
     3  N    0.009308  -0.007283  -0.012852
     4  N   -0.032040  -0.047441   0.016954
     5  N   -0.011342   0.020868  -0.000331
     6  C    0.409807   0.409000   0.004899
     7  N   -0.030604  -0.063828  -0.085415
     8  N   -0.025101   0.040035   0.004766
     9  N    0.003400  -0.005081   0.000141
    10  N   -0.002064   0.001298  -0.024957
    11  C    0.004438  -0.002306   0.417260
    12  H    0.000004  -0.000012   0.000001
    13  H    0.500303  -0.027659  -0.000109
    14  H   -0.027659   0.475926  -0.000076
    15  H   -0.000109  -0.000076   0.488439
 Mulliken charges:
               1
     1  C    0.042375
     2  N   -0.234753
     3  N   -0.076107
     4  N    0.195924
     5  N   -0.194665
     6  C   -0.136667
     7  N   -0.045672
     8  N   -0.045050
     9  N   -0.134227
    10  N   -0.115143
    11  C   -0.020727
    12  H    0.165507
    13  H    0.202622
    14  H    0.207944
    15  H    0.188639
 Sum of Mulliken charges =   0.00000
 Mulliken charges with hydrogens summed into heavy atoms:
               1
     1  C    0.207882
     2  N   -0.234753
     3  N   -0.076107
     4  N    0.195924
     5  N   -0.194665
     6  C    0.273900
     7  N   -0.045672
     8  N   -0.045050
     9  N   -0.134227
    10  N   -0.115143
    11  C    0.167911
 Electronic spatial extent (au):  <R**2>=           1736.9444
 Charge=              0.0000 electrons
 Dipole moment (field-independent basis, Debye):
    X=             -3.6712    Y=             -1.6048    Z=             -0.8963  Tot=              4.1057
 Quadrupole moment (field-independent basis, Debye-Ang):
   XX=            -84.0303   YY=            -62.8524   ZZ=            -63.0950
   XY=              1.2600   XZ=            -10.2518   YZ=              3.8814
 Traceless Quadrupole moment (field-independent basis, Debye-Ang):
   XX=            -14.0377   YY=              7.1401   ZZ=              6.8976
   XY=              1.2600   XZ=            -10.2518   YZ=              3.8814
 Octapole moment (field-independent basis, Debye-Ang**2):
  XXX=            -62.8404  YYY=             -9.1408  ZZZ=              0.2781  XYY=             -8.6857
  XXY=            -13.8670  XXZ=             15.3700  XZZ=             -2.8620  YZZ=             -0.7110
  YYZ=             -5.2808  XYZ=             -7.3037
 Hexadecapole moment (field-independent basis, Debye-Ang**3):
 XXXX=          -2092.0191 YYYY=           -293.2328 ZZZZ=           -217.6997 XXXY=              9.1596
 XXXZ=           -125.9808 YYYX=             -2.5037 YYYZ=              2.6678 ZZZX=            -23.4495
 ZZZY=             12.7722 XXYY=           -408.6405 XXZZ=           -329.1320 YYZZ=            -85.7508
 XXYZ=             19.9894 YYXZ=             -5.7487 ZZXY=             -5.1470
 N-N= 5.848676080721D+02 E-N=-2.458902815758D+03  KE= 5.493435116402D+02
 Calling FoFJK, ICntrl=      2127 FMM=F ISym2X=0 I1Cent= 0 IOpClX= 0 NMat=1 NMatS=1 NMatT=0.
 ***** Axes restored to original set *****
 -------------------------------------------------------------------
 Center     Atomic                   Forces (Hartrees/Bohr)
 Number     Number              X              Y              Z
 -------------------------------------------------------------------
      1        6          -0.022030220   -0.022470512    0.009269926
      2        7           0.038190289    0.043146858   -0.016976801
      3        7          -0.034885636   -0.024115673    0.011811084
      4        7           0.003359911    0.004673048   -0.000591824
      5        7           0.021606184    0.001961454   -0.000984504
      6        6           0.003028086    0.002332762   -0.007445110
      7        7          -0.006859200    0.004352646    0.013341595
      8        7           0.008624596    0.023451247    0.061246292
      9        7          -0.019861635   -0.007493668   -0.041215808
     10        7           0.022236922   -0.023395038   -0.018211783
     11        6          -0.009241011   -0.003358705   -0.016698012
     12        1           0.000527380   -0.000907279    0.000017379
     13        1          -0.006750089    0.002142060   -0.001809703
     14        1           0.001819881   -0.001142203    0.006386945
     15        1           0.000234542    0.000823003    0.001860323
 -------------------------------------------------------------------
 Cartesian Forces:  Max     0.061246292 RMS     0.018749650

 GradGradGradGradGradGradGradGradGradGradGradGradGradGradGradGradGradGrad
 Berny optimization.
 FormGI is forming the generalized inverse of G from B-inverse, IUseBI=4.
 Internal  Forces:  Max     0.057573675 RMS     0.010830642
 Search for a local minimum.
 Step number   1 out of a maximum of   81
 All quantities printed in internal units (Hartrees-Bohrs-Radians)
 Mixed Optimization -- RFO/linear search
 Second derivative matrix not updated -- first step.
 ITU=  0
     Eigenvalues ---    0.00925   0.00963   0.01441   0.01445   0.01839
     Eigenvalues ---    0.02112   0.02193   0.02386   0.02516   0.02785
     Eigenvalues ---    0.05124   0.06660   0.10116   0.13347   0.15999
     Eigenvalues ---    0.16000   0.22031   0.23422   0.23589   0.24979
     Eigenvalues ---    0.24998   0.24999   0.25000   0.34681   0.34798
     Eigenvalues ---    0.35890   0.35923   0.37217   0.37587   0.43225
     Eigenvalues ---    0.46283   0.46970   0.49366   0.51115   0.55473
     Eigenvalues ---    0.56466   0.60446   0.61899   0.62833
 RFO step:  Lambda=-1.91286320D-02 EMin= 9.24670758D-03
 Linear search not attempted -- first point.
 Iteration  1 RMS(Cart)=  0.04039269 RMS(Int)=  0.00068555
 Iteration  2 RMS(Cart)=  0.00103603 RMS(Int)=  0.00026805
 Iteration  3 RMS(Cart)=  0.00000046 RMS(Int)=  0.00026805
 Variable       Old X    -DE/DX   Delta X   Delta X   Delta X     New X
                                 (Linear)    (Quad)   (Total)
    R1        2.49580   0.02436   0.00000   0.04159   0.04154   2.53734
    R2        2.48325   0.01712   0.00000   0.03082   0.03081   2.51405
    R3        2.04254   0.00017   0.00000   0.00046   0.00046   2.04300
    R4        2.60629  -0.04004   0.00000  -0.08160  -0.08162   2.52467
    R5        2.52152  -0.00412   0.00000  -0.01175  -0.01171   2.50980
    R6        2.52763  -0.00390   0.00000  -0.00708  -0.00704   2.52059
    R7        2.74971  -0.00678   0.00000  -0.01717  -0.01717   2.73254
    R8        2.75520  -0.00277   0.00000  -0.00707  -0.00707   2.74814
    R9        2.06005   0.00121   0.00000   0.00328   0.00328   2.06333
   R10        2.06196  -0.00096   0.00000  -0.00262  -0.00262   2.05934
   R11        2.52554   0.00302   0.00000   0.00502   0.00513   2.53066
   R12        2.59741  -0.02259   0.00000  -0.03904  -0.03884   2.55858
   R13        2.61221  -0.05757   0.00000  -0.11845  -0.11858   2.49363
   R14        2.63180  -0.02232   0.00000  -0.04859  -0.04878   2.58302
   R15        2.47190   0.00153   0.00000   0.00464   0.00466   2.47655
   R16        2.04202   0.00015   0.00000   0.00040   0.00040   2.04242
    A1        2.01809  -0.01162   0.00000  -0.03026  -0.03031   1.98779
    A2        2.13001   0.00683   0.00000   0.02084   0.02085   2.15086
    A3        2.13508   0.00479   0.00000   0.00943   0.00945   2.14453
    A4        1.83435   0.00172   0.00000   0.00915   0.00907   1.84342
    A5        1.81025   0.01344   0.00000   0.02705   0.02706   1.83731
    A6        2.00675   0.00148   0.00000  -0.00341  -0.00343   2.00331
    A7        2.13676  -0.00190   0.00000  -0.00270  -0.00280   2.13395
    A8        2.13965   0.00042   0.00000   0.00594   0.00582   2.14547
    A9        1.75533  -0.00502   0.00000  -0.00248  -0.00243   1.75290
   A10        1.97103  -0.00768   0.00000  -0.03944  -0.03978   1.93124
   A11        1.91010  -0.00354   0.00000  -0.02872  -0.02831   1.88180
   A12        1.89044   0.00525   0.00000   0.02115   0.02033   1.91077
   A13        1.88919   0.00744   0.00000   0.04575   0.04547   1.93466
   A14        1.91978  -0.00321   0.00000  -0.03160  -0.03181   1.88797
   A15        1.88135   0.00206   0.00000   0.03591   0.03614   1.91749
   A16        2.10362   0.00276   0.00000   0.00561   0.00545   2.10907
   A17        2.26634   0.00165   0.00000   0.00152   0.00139   2.26773
   A18        1.91250  -0.00440   0.00000  -0.00694  -0.00668   1.90582
   A19        1.82408   0.01262   0.00000   0.03821   0.03816   1.86224
   A20        1.92744  -0.00317   0.00000  -0.02622  -0.02666   1.90078
   A21        1.83336   0.01164   0.00000   0.04837   0.04814   1.88150
   A22        1.92733  -0.01668   0.00000  -0.05321  -0.05303   1.87430
   A23        2.12393   0.01043   0.00000   0.03827   0.03817   2.16209
   A24        2.23187   0.00626   0.00000   0.01502   0.01491   2.24678
    D1        0.00012  -0.00014   0.00000  -0.00371  -0.00361  -0.00349
    D2        3.14073   0.00008   0.00000   0.00083   0.00086   3.14159
    D3        0.00162  -0.00015   0.00000  -0.00423  -0.00430  -0.00267
    D4       -3.13899  -0.00037   0.00000  -0.00879  -0.00875   3.13545
    D5       -0.00183   0.00036   0.00000   0.00993   0.00993   0.00810
    D6        0.00310  -0.00047   0.00000  -0.01382  -0.01390  -0.01080
    D7       -3.13040   0.00031   0.00000   0.00949   0.00930  -3.12110
    D8       -0.00293   0.00041   0.00000   0.01141   0.01127   0.00833
    D9        3.13055  -0.00038   0.00000  -0.01199  -0.01215   3.11839
   D10        1.75782   0.00161   0.00000  -0.00573  -0.00535   1.75247
   D11       -0.34791  -0.00030   0.00000  -0.01768  -0.01802  -0.36593
   D12       -2.39465  -0.00379   0.00000  -0.05673  -0.05678  -2.45143
   D13       -1.37507   0.00244   0.00000   0.01940   0.01980  -1.35527
   D14        2.80239   0.00054   0.00000   0.00745   0.00712   2.80951
   D15        0.75566  -0.00295   0.00000  -0.03160  -0.03164   0.72402
   D16        2.47642   0.00060   0.00000  -0.01736  -0.01664   2.45978
   D17       -0.71085   0.00072   0.00000  -0.01167  -0.01100  -0.72185
   D18       -1.68916  -0.00362   0.00000  -0.04715  -0.04737  -1.73653
   D19        1.40676  -0.00350   0.00000  -0.04146  -0.04173   1.36503
   D20        0.36226   0.00139   0.00000   0.00495   0.00451   0.36678
   D21       -2.82501   0.00151   0.00000   0.01063   0.01016  -2.81485
   D22        3.11436  -0.00053   0.00000  -0.01655  -0.01710   3.09725
   D23        0.00998  -0.00074   0.00000  -0.02132  -0.02181  -0.01184
   D24       -3.11179   0.00049   0.00000   0.01036   0.00999  -3.10180
   D25        0.04028   0.00012   0.00000   0.00257   0.00237   0.04265
   D26       -0.01196   0.00073   0.00000   0.01580   0.01535   0.00339
   D27        3.14011   0.00036   0.00000   0.00801   0.00773  -3.13534
   D28       -0.00510   0.00078   0.00000   0.02083   0.02067   0.01557
   D29       -0.00190  -0.00046   0.00000  -0.01202  -0.01189  -0.01379
   D30        0.00816  -0.00007   0.00000  -0.00182  -0.00198   0.00618
   D31        3.13846   0.00035   0.00000   0.00672   0.00628  -3.13845
         Item               Value     Threshold  Converged?
 Maximum Force            0.057574     0.000450     NO 
 RMS     Force            0.010831     0.000300     NO 
 Maximum Displacement     0.099141     0.001800     NO 
 RMS     Displacement     0.040972     0.001200     NO 
 Predicted change in Energy=-1.011923D-02
 GradGradGradGradGradGradGradGradGradGradGradGradGradGradGradGradGradGrad

                          Input orientation:                          
 ---------------------------------------------------------------------
 Center     Atomic      Atomic             Coordinates (Angstroms)
 Number     Number       Type             X           Y           Z
 ---------------------------------------------------------------------
      1          6           0       -2.554012   -0.963862   -0.473765
      2          7           0       -2.748667    0.290970   -0.910063
      3          7           0       -1.529366    0.781847   -1.149304
      4          7           0       -0.690877   -0.204768   -0.853571
      5          7           0       -1.274110   -1.322595   -0.418343
      6          6           0        0.743609   -0.056505   -0.959274
      7          7           0        1.331825    0.186864    0.348250
      8          7           0        2.500732   -0.370326    0.689676
      9          7           0        2.795651    0.076196    1.895874
     10          7           0        1.793246    0.903396    2.319279
     11          6           0        0.899431    0.971663    1.363277
     12          1           0       -3.361690   -1.626335   -0.195236
     13          1           0        0.944460    0.775877   -1.636751
     14          1           0        1.175070   -0.973127   -1.360784
     15          1           0       -0.025254    1.530755    1.340734
 ---------------------------------------------------------------------
                    Distance matrix (angstroms):
                    1          2          3          4          5
     1  C    0.000000
     2  N    1.342702   0.000000
     3  N    2.133953   1.335999   0.000000
     4  N    2.047376   2.117415   1.328131   0.000000
     5  N    1.330380   2.240468   2.242351   1.333837   0.000000
     6  C    3.454464   3.509865   2.430095   1.445996   2.442699
     7  N    4.135167   4.271370   3.283761   2.385177   3.107576
     8  N    5.220759   5.527447   4.577231   3.548998   4.047710
     9  N    5.942710   6.217626   5.336368   4.449074   4.886222
    10  N    5.494215   5.606486   4.804747   4.179219   4.675284
    11  C    4.364315   4.352015   3.499735   2.971108   3.627957
    12  H    1.081107   2.136079   3.172854   3.096369   2.121327
    13  H    4.076584   3.795050   2.521400   2.061398   3.287880
    14  H    3.833137   4.146903   3.230887   2.080721   2.647414
    15  H    3.988751   3.744346   3.003915   2.875772   3.577093
                    6          7          8          9         10
     6  C    0.000000
     7  N    1.454251   0.000000
     8  N    2.430021   1.339170   0.000000
     9  N    3.518573   2.133113   1.319572   0.000000
    10  N    3.573802   2.147390   2.185980   1.366875   0.000000
    11  C    2.544731   1.353940   2.195185   2.163602   1.310536
    12  H    4.461121   5.060845   6.060415   6.721920   6.268628
    13  H    1.091868   2.106471   3.024571   4.049185   4.048070
    14  H    1.089754   2.071460   2.514982   3.785918   4.176882
    15  H    2.898376   2.152378   3.227784   3.222022   2.158257
                   11         12         13         14         15
    11  C    0.000000
    12  H    5.228356   0.000000
    13  H    3.006747   5.137268   0.000000
    14  H    3.358376   4.729416   1.785596   0.000000
    15  H    1.080802   4.843369   3.221118   3.874067   0.000000
 Stoichiometry    C3H4N8
 Framework group  C1[X(C3H4N8)]
 Deg. of freedom    39
 Full point group                 C1      NOp   1
 Largest Abelian subgroup         C1      NOp   1
 Largest concise Abelian subgroup C1      NOp   1
                         Standard orientation:                         
 ---------------------------------------------------------------------
 Center     Atomic      Atomic             Coordinates (Angstroms)
 Number     Number       Type             X           Y           Z
 ---------------------------------------------------------------------
      1          6           0       -2.739585    0.272310    0.931740
      2          7           0       -2.956395    0.712155   -0.318211
      3          7           0       -1.943631    0.235932   -1.047878
      4          7           0       -1.197628   -0.460780   -0.198171
      5          7           0       -1.642476   -0.469309    1.059271
      6          6           0        0.022478   -1.121793   -0.604752
      7          7           0        1.183992   -0.333375   -0.225108
      8          7           0        2.294219   -0.924211    0.234983
      9          7           0        3.177794    0.034654    0.437826
     10          7           0        2.608282    1.236066    0.120632
     11          6           0        1.385745    1.003854   -0.290448
     12          1           0       -3.396502    0.495717    1.760801
     13          1           0       -0.016814   -1.259429   -1.687198
     14          1           0        0.092988   -2.090518   -0.110623
     15          1           0        0.639403    1.710088   -0.625620
 ---------------------------------------------------------------------
 Rotational constants (GHZ):      3.4681646      0.6758725      0.6523958
 Standard basis: 6-31+G(d,p) (6D, 7F)
 There are   229 symmetry adapted cartesian basis functions of A   symmetry.
 There are   229 symmetry adapted basis functions of A   symmetry.
   229 basis functions,   380 primitive gaussians,   229 cartesian basis functions
    39 alpha electrons       39 beta electrons
       nuclear repulsion energy       590.6508370720 Hartrees.
 NAtoms=   15 NActive=   15 NUniq=   15 SFac= 1.00D+00 NAtFMM=   60 NAOKFM=F Big=F
 Integral buffers will be    131072 words long.
 Raffenetti 2 integral format.
 Two-electron integral symmetry is turned on.
 Nuclear repulsion after empirical dispersion term =      590.6413108058 Hartrees.
 One-electron integrals computed using PRISM.
 NBasis=   229 RedAO= T EigKep=  3.37D-05  NBF=   229
 NBsUse=   229 1.00D-06 EigRej= -1.00D+00 NBFU=   229
 Initial guess from the checkpoint file:  "Klapotke02_TZ02_1.chk"
 B after Tr=     0.000000    0.000000    0.000000
         Rot=    0.999905    0.013578   -0.000989   -0.002147 Ang=   1.58 deg.
 ExpMin= 4.38D-02 ExpMax= 4.17D+03 ExpMxC= 6.27D+02 IAcc=2 IRadAn=         4 AccDes= 0.00D+00
 Harris functional with IExCor=  402 and IRadAn=       4 diagonalized for initial guess.
 HarFok:  IExCor=  402 AccDes= 0.00D+00 IRadAn=         4 IDoV= 1 UseB2=F ITyADJ=14
 ICtDFT=  3500011 ScaDFX=  1.000000  1.000000  1.000000  1.000000
 FoFCou: FMM=F IPFlag=           0 FMFlag=      100000 FMFlg1=           0
         NFxFlg=           0 DoJE=T BraDBF=F KetDBF=T FulRan=T
         wScrn=  0.000000 ICntrl=     500 IOpCl=  0 I1Cent=   200000004 NGrid=           0
         NMat0=    1 NMatS0=      1 NMatT0=    0 NMatD0=    1 NMtDS0=    0 NMtDT0=    0
 Petite list used in FoFCou.
 Keep R1 ints in memory in canonical form, NReq=353042986.
 Requested convergence on RMS density matrix=1.00D-08 within 128 cycles.
 Requested convergence on MAX density matrix=1.00D-06.
 Requested convergence on             energy=1.00D-06.
 No special actions if energy rises.
 SCF Done:  E(RB3LYP) =  -554.652343170     A.U. after   13 cycles
            NFock= 13  Conv=0.54D-08     -V/T= 2.0092
 Calling FoFJK, ICntrl=      2127 FMM=F ISym2X=0 I1Cent= 0 IOpClX= 0 NMat=1 NMatS=1 NMatT=0.
 ***** Axes restored to original set *****
 -------------------------------------------------------------------
 Center     Atomic                   Forces (Hartrees/Bohr)
 Number     Number              X              Y              Z
 -------------------------------------------------------------------
      1        6          -0.004290245   -0.011791802    0.004613654
      2        7           0.018674816    0.016075906   -0.005727866
      3        7          -0.019248699   -0.005873421    0.002852130
      4        7           0.003112788   -0.003071522   -0.000557160
      5        7          -0.000543604    0.003107596   -0.001725087
      6        6           0.003104591   -0.000155162   -0.002425374
      7        7          -0.005506424    0.000390356   -0.002744362
      8        7           0.013548096    0.001328189    0.015356842
      9        7          -0.021518587   -0.000827001   -0.022855675
     10        7           0.007594766    0.003146476    0.013911135
     11        6           0.003952566   -0.003088756   -0.004872943
     12        1           0.000940434    0.000309390   -0.000230039
     13        1          -0.001543697    0.000752056    0.000862027
     14        1           0.000350629   -0.000459447    0.001488171
     15        1           0.001372569    0.000157141    0.002054546
 -------------------------------------------------------------------
 Cartesian Forces:  Max     0.022855675 RMS     0.008230651

 GradGradGradGradGradGradGradGradGradGradGradGradGradGradGradGradGradGrad
 Berny optimization.
 Using GEDIIS/GDIIS optimizer.
 FormGI is forming the generalized inverse of G from B-inverse, IUseBI=4.
 Internal  Forces:  Max     0.017686124 RMS     0.004324831
 Search for a local minimum.
 Step number   2 out of a maximum of   81
 All quantities printed in internal units (Hartrees-Bohrs-Radians)
 Mixed Optimization -- RFO/linear search
 Update second derivatives using D2CorX and points    1    2
 DE= -1.15D-02 DEPred=-1.01D-02 R= 1.14D+00
 TightC=F SS=  1.41D+00  RLast= 2.42D-01 DXNew= 5.0454D-01 7.2563D-01
 Trust test= 1.14D+00 RLast= 2.42D-01 DXMaxT set to 5.05D-01
 ITU=  1  0
 Use linear search instead of GDIIS.
     Eigenvalues ---    0.00922   0.00963   0.01441   0.01450   0.01853
     Eigenvalues ---    0.02113   0.02203   0.02380   0.02505   0.02785
     Eigenvalues ---    0.05471   0.06740   0.09715   0.12990   0.15843
     Eigenvalues ---    0.16002   0.21772   0.22620   0.24214   0.24745
     Eigenvalues ---    0.24985   0.24993   0.27437   0.34683   0.34778
     Eigenvalues ---    0.35218   0.35903   0.36197   0.37264   0.38132
     Eigenvalues ---    0.44639   0.46470   0.50531   0.52375   0.55242
     Eigenvalues ---    0.56839   0.59908   0.62367   0.63092
 RFO step:  Lambda=-4.83531360D-03 EMin= 9.22189877D-03
 Quartic linear search produced a step of  0.17255.
 Iteration  1 RMS(Cart)=  0.02812259 RMS(Int)=  0.00086606
 Iteration  2 RMS(Cart)=  0.00069548 RMS(Int)=  0.00025675
 Iteration  3 RMS(Cart)=  0.00000060 RMS(Int)=  0.00025675
 Variable       Old X    -DE/DX   Delta X   Delta X   Delta X     New X
                                 (Linear)    (Quad)   (Total)
    R1        2.53734   0.00921   0.00717   0.02086   0.02804   2.56538
    R2        2.51405   0.00005   0.00532   0.00357   0.00893   2.52298
    R3        2.04300  -0.00095   0.00008  -0.00303  -0.00295   2.04004
    R4        2.52467  -0.01769  -0.01408  -0.04829  -0.06241   2.46226
    R5        2.50980   0.00271  -0.00202   0.00343   0.00138   2.51118
    R6        2.52059  -0.00025  -0.00122  -0.00079  -0.00199   2.51860
    R7        2.73254   0.00141  -0.00296   0.00330   0.00033   2.73287
    R8        2.74814   0.00072  -0.00122   0.00182   0.00060   2.74874
    R9        2.06333  -0.00025   0.00057  -0.00062  -0.00005   2.06328
   R10        2.05934  -0.00002  -0.00045  -0.00023  -0.00068   2.05865
   R11        2.53066   0.00216   0.00088   0.00495   0.00561   2.53627
   R12        2.55858   0.00289  -0.00670   0.00621  -0.00075   2.55782
   R13        2.49363  -0.01755  -0.02046  -0.05183  -0.07216   2.42148
   R14        2.58302  -0.00598  -0.00842  -0.01965  -0.02777   2.55525
   R15        2.47655   0.00290   0.00080   0.00639   0.00725   2.48380
   R16        2.04242  -0.00114   0.00007  -0.00363  -0.00356   2.03886
    A1        1.98779  -0.00462  -0.00523  -0.02053  -0.02574   1.96204
    A2        2.15086   0.00267   0.00360   0.01295   0.01654   2.16740
    A3        2.14453   0.00195   0.00163   0.00759   0.00921   2.15374
    A4        1.84342   0.00275   0.00156   0.01241   0.01390   1.85731
    A5        1.83731   0.00331   0.00467   0.01041   0.01496   1.85227
    A6        2.00331  -0.00169  -0.00059  -0.00919  -0.00986   1.99345
    A7        2.13395  -0.00028  -0.00048  -0.00095  -0.00148   2.13247
    A8        2.14547   0.00197   0.00100   0.00978   0.01074   2.15621
    A9        1.75290   0.00026  -0.00042   0.00713   0.00675   1.75965
   A10        1.93124   0.00085  -0.00686   0.00130  -0.00565   1.92559
   A11        1.88180  -0.00088  -0.00488  -0.00772  -0.01253   1.86926
   A12        1.91077   0.00003   0.00351   0.00258   0.00590   1.91667
   A13        1.93466  -0.00020   0.00785  -0.00206   0.00569   1.94035
   A14        1.88797  -0.00092  -0.00549  -0.00665  -0.01218   1.87580
   A15        1.91749   0.00115   0.00624   0.01289   0.01920   1.93669
   A16        2.10907  -0.00043   0.00094  -0.00419  -0.00297   2.10610
   A17        2.26773   0.00370   0.00024   0.01461   0.01514   2.28288
   A18        1.90582  -0.00327  -0.00115  -0.01099  -0.01284   1.89298
   A19        1.86224  -0.00450   0.00658  -0.02307  -0.01697   1.84528
   A20        1.90078   0.01630  -0.00460   0.06498   0.06052   1.96130
   A21        1.88150  -0.01202   0.00831  -0.05310  -0.04469   1.83681
   A22        1.87430   0.00352  -0.00915   0.02303   0.01344   1.88775
   A23        2.16209   0.00049   0.00659   0.00469   0.01147   2.17357
   A24        2.24678  -0.00401   0.00257  -0.02775  -0.02497   2.22181
    D1       -0.00349   0.00023  -0.00062   0.01122   0.01056   0.00707
    D2        3.14159   0.00018   0.00015   0.00746   0.00768  -3.13392
    D3       -0.00267   0.00000  -0.00074   0.00161   0.00104  -0.00163
    D4        3.13545   0.00006  -0.00151   0.00536   0.00392   3.13936
    D5        0.00810  -0.00037   0.00171  -0.01889  -0.01731  -0.00921
    D6       -0.01080   0.00042  -0.00240   0.02218   0.01983   0.00903
    D7       -3.12110   0.00076   0.00161   0.03456   0.03609  -3.08501
    D8        0.00833  -0.00030   0.00194  -0.01489  -0.01283  -0.00450
    D9        3.11839  -0.00069  -0.00210  -0.02758  -0.02959   3.08880
   D10        1.75247  -0.00044  -0.00092  -0.02414  -0.02501   1.72746
   D11       -0.36593  -0.00016  -0.00311  -0.01748  -0.02073  -0.38666
   D12       -2.45143  -0.00104  -0.00980  -0.02992  -0.03978  -2.49121
   D13       -1.35527   0.00000   0.00342  -0.01039  -0.00682  -1.36209
   D14        2.80951   0.00028   0.00123  -0.00373  -0.00254   2.80697
   D15        0.72402  -0.00060  -0.00546  -0.01617  -0.02159   0.70242
   D16        2.45978  -0.00014  -0.00287  -0.01742  -0.02021   2.43957
   D17       -0.72185  -0.00047  -0.00190  -0.03831  -0.03998  -0.76183
   D18       -1.73653  -0.00081  -0.00817  -0.02758  -0.03587  -1.77240
   D19        1.36503  -0.00114  -0.00720  -0.04847  -0.05564   1.30939
   D20        0.36678  -0.00010   0.00078  -0.01720  -0.01660   0.35017
   D21       -2.81485  -0.00043   0.00175  -0.03809  -0.03637  -2.85122
   D22        3.09725   0.00071  -0.00295   0.03330   0.02999   3.12724
   D23       -0.01184   0.00084  -0.00376   0.04974   0.04521   0.03337
   D24       -3.10180  -0.00019   0.00172  -0.00889  -0.00740  -3.10920
   D25        0.04265  -0.00002   0.00041  -0.00021   0.00039   0.04303
   D26        0.00339  -0.00045   0.00265  -0.02783  -0.02523  -0.02184
   D27       -3.13534  -0.00028   0.00133  -0.01915  -0.01744   3.13040
   D28        0.01557  -0.00073   0.00357  -0.05162  -0.04896  -0.03339
   D29       -0.01379   0.00052  -0.00205   0.03559   0.03405   0.02026
   D30        0.00618  -0.00014  -0.00034  -0.00480  -0.00437   0.00182
   D31       -3.13845  -0.00032   0.00108  -0.01397  -0.01235   3.13239
         Item               Value     Threshold  Converged?
 Maximum Force            0.017686     0.000450     NO 
 RMS     Force            0.004325     0.000300     NO 
 Maximum Displacement     0.124119     0.001800     NO 
 RMS     Displacement     0.028153     0.001200     NO 
 Predicted change in Energy=-2.888280D-03
 GradGradGradGradGradGradGradGradGradGradGradGradGradGradGradGradGradGrad

                          Input orientation:                          
 ---------------------------------------------------------------------
 Center     Atomic      Atomic             Coordinates (Angstroms)
 Number     Number       Type             X           Y           Z
 ---------------------------------------------------------------------
      1          6           0       -2.553218   -0.977476   -0.466570
      2          7           0       -2.722042    0.305024   -0.878403
      3          7           0       -1.531898    0.768911   -1.135517
      4          7           0       -0.684761   -0.219281   -0.867739
      5          7           0       -1.268748   -1.341167   -0.447441
      6          6           0        0.748340   -0.054078   -0.969450
      7          7           0        1.323282    0.190604    0.344073
      8          7           0        2.487704   -0.375285    0.697946
      9          7           0        2.729970    0.041841    1.885074
     10          7           0        1.788095    0.904034    2.329918
     11          6           0        0.911203    0.991160    1.354704
     12          1           0       -3.361432   -1.635516   -0.185162
     13          1           0        0.927609    0.787600   -1.641429
     14          1           0        1.198578   -0.966462   -1.358830
     15          1           0        0.007368    1.580141    1.338827
 ---------------------------------------------------------------------
                    Distance matrix (angstroms):
                    1          2          3          4          5
     1  C    0.000000
     2  N    1.357540   0.000000
     3  N    2.130834   1.302974   0.000000
     4  N    2.055949   2.103693   1.328861   0.000000
     5  N    1.335104   2.237798   2.234978   1.332785   0.000000
     6  C    3.464944   3.490099   2.429892   1.446173   2.449027
     7  N    4.129020   4.227551   3.267366   2.380910   3.113106
     8  N    5.208611   5.485358   4.563768   3.541221   4.044227
     9  N    5.872080   6.118048   5.274100   4.393923   4.831468
    10  N    5.496128   5.567178   4.801026   4.195458   4.700950
    11  C    4.381185   4.319493   3.495617   2.991910   3.666014
    12  H    1.079545   2.157568   3.167276   3.104222   2.129497
    13  H    4.075775   3.759660   2.511070   2.052351   3.283479
    14  H    3.856452   4.149548   3.242975   2.084806   2.656827
    15  H    4.044437   3.740550   3.024866   2.930170   3.654212
                    6          7          8          9         10
     6  C    0.000000
     7  N    1.454569   0.000000
     8  N    2.430797   1.342138   0.000000
     9  N    3.476258   2.091790   1.281389   0.000000
    10  N    3.589555   2.160698   2.188479   1.352181   0.000000
    11  C    2.553574   1.353541   2.187203   2.119059   1.314372
    12  H    4.472837   5.055823   6.048178   6.648653   6.268378
    13  H    1.091840   2.110730   3.042839   4.029998   4.065168
    14  H    1.089392   2.062579   2.498333   3.726225   4.177697
    15  H    2.923672   2.156844   3.222807   3.174479   2.147177
                   11         12         13         14         15
    11  C    0.000000
    12  H    5.246525   0.000000
    13  H    3.003085   5.136932   0.000000
    14  H    3.358294   4.755924   1.797225   0.000000
    15  H    1.078920   4.900184   3.218212   3.896347   0.000000
 Stoichiometry    C3H4N8
 Framework group  C1[X(C3H4N8)]
 Deg. of freedom    39
 Full point group                 C1      NOp   1
 Largest Abelian subgroup         C1      NOp   1
 Largest concise Abelian subgroup C1      NOp   1
                         Standard orientation:                         
 ---------------------------------------------------------------------
 Center     Atomic      Atomic             Coordinates (Angstroms)
 Number     Number       Type             X           Y           Z
 ---------------------------------------------------------------------
      1          6           0       -2.733339    0.259365    0.946734
      2          7           0       -2.910109    0.748086   -0.307386
      3          7           0       -1.935866    0.271051   -1.029209
      4          7           0       -1.198790   -0.471511   -0.209946
      5          7           0       -1.652774   -0.518941    1.042239
      6          6           0        0.022166   -1.114836   -0.642165
      7          7           0        1.177608   -0.328113   -0.239929
      8          7           0        2.286348   -0.926918    0.222092
      9          7           0        3.114412    0.019054    0.469895
     10          7           0        2.616679    1.235339    0.151614
     11          6           0        1.401677    1.005656   -0.294021
     12          1           0       -3.388562    0.471124    1.778153
     13          1           0       -0.031858   -1.209190   -1.728578
     14          1           0        0.111639   -2.092497   -0.169990
     15          1           0        0.683191    1.733126   -0.638453
 ---------------------------------------------------------------------
 Rotational constants (GHZ):      3.4180809      0.6837669      0.6589921
 Standard basis: 6-31+G(d,p) (6D, 7F)
 There are   229 symmetry adapted cartesian basis functions of A   symmetry.
 There are   229 symmetry adapted basis functions of A   symmetry.
   229 basis functions,   380 primitive gaussians,   229 cartesian basis functions
    39 alpha electrons       39 beta electrons
       nuclear repulsion energy       592.4941776091 Hartrees.
 NAtoms=   15 NActive=   15 NUniq=   15 SFac= 1.00D+00 NAtFMM=   60 NAOKFM=F Big=F
 Integral buffers will be    131072 words long.
 Raffenetti 2 integral format.
 Two-electron integral symmetry is turned on.
 Nuclear repulsion after empirical dispersion term =      592.4846992493 Hartrees.
 One-electron integrals computed using PRISM.
 NBasis=   229 RedAO= T EigKep=  3.32D-05  NBF=   229
 NBsUse=   229 1.00D-06 EigRej= -1.00D+00 NBFU=   229
 Initial guess from the checkpoint file:  "Klapotke02_TZ02_1.chk"
 B after Tr=     0.000000    0.000000    0.000000
         Rot=    0.999923   -0.012236    0.001076    0.001474 Ang=  -1.42 deg.
 ExpMin= 4.38D-02 ExpMax= 4.17D+03 ExpMxC= 6.27D+02 IAcc=2 IRadAn=         4 AccDes= 0.00D+00
 Harris functional with IExCor=  402 and IRadAn=       4 diagonalized for initial guess.
 HarFok:  IExCor=  402 AccDes= 0.00D+00 IRadAn=         4 IDoV= 1 UseB2=F ITyADJ=14
 ICtDFT=  3500011 ScaDFX=  1.000000  1.000000  1.000000  1.000000
 FoFCou: FMM=F IPFlag=           0 FMFlag=      100000 FMFlg1=           0
         NFxFlg=           0 DoJE=T BraDBF=F KetDBF=T FulRan=T
         wScrn=  0.000000 ICntrl=     500 IOpCl=  0 I1Cent=   200000004 NGrid=           0
         NMat0=    1 NMatS0=      1 NMatT0=    0 NMatD0=    1 NMtDS0=    0 NMtDT0=    0
 Petite list used in FoFCou.
 Keep R1 ints in memory in canonical form, NReq=353042986.
 Requested convergence on RMS density matrix=1.00D-08 within 128 cycles.
 Requested convergence on MAX density matrix=1.00D-06.
 Requested convergence on             energy=1.00D-06.
 No special actions if energy rises.
 SCF Done:  E(RB3LYP) =  -554.653809278     A.U. after   13 cycles
            NFock= 13  Conv=0.50D-08     -V/T= 2.0089
 Calling FoFJK, ICntrl=      2127 FMM=F ISym2X=0 I1Cent= 0 IOpClX= 0 NMat=1 NMatS=1 NMatT=0.
 ***** Axes restored to original set *****
 -------------------------------------------------------------------
 Center     Atomic                   Forces (Hartrees/Bohr)
 Number     Number              X              Y              Z
 -------------------------------------------------------------------
      1        6           0.006856092   -0.002935637    0.001083653
      2        7          -0.005095678   -0.000716437   -0.001189993
      3        7          -0.000430895    0.007237586    0.000859440
      4        7           0.004218357   -0.007047783   -0.002202305
      5        7          -0.006920329    0.001754144    0.000870972
      6        6           0.000008180    0.001220980    0.000114732
      7        7          -0.010071562    0.007836530   -0.007776887
      8        7          -0.000449373   -0.008642995   -0.001808994
      9        7           0.020422080   -0.000335248    0.012712442
     10        7          -0.004718550    0.000314402    0.000836541
     11        6          -0.003781841    0.000890779   -0.003489470
     12        1           0.000223471    0.000396135   -0.000247576
     13        1           0.000003189   -0.000016383    0.000410525
     14        1           0.000114173   -0.000055340   -0.000006795
     15        1          -0.000377313    0.000099268   -0.000166287
 -------------------------------------------------------------------
 Cartesian Forces:  Max     0.020422080 RMS     0.005152774

 GradGradGradGradGradGradGradGradGradGradGradGradGradGradGradGradGradGrad
 Berny optimization.
 Using GEDIIS/GDIIS optimizer.
 FormGI is forming the generalized inverse of G from B-inverse, IUseBI=4.
 Internal  Forces:  Max     0.012915049 RMS     0.003332328
 Search for a local minimum.
 Step number   3 out of a maximum of   81
 All quantities printed in internal units (Hartrees-Bohrs-Radians)
 Mixed Optimization -- RFO/linear search
 Update second derivatives using D2CorX and points    1    2    3
 DE= -1.47D-03 DEPred=-2.89D-03 R= 5.08D-01
 TightC=F SS=  1.41D+00  RLast= 2.07D-01 DXNew= 8.4853D-01 6.1950D-01
 Trust test= 5.08D-01 RLast= 2.07D-01 DXMaxT set to 6.20D-01
 ITU=  1  1  0
 Use linear search instead of GDIIS.
     Eigenvalues ---    0.00905   0.00959   0.01433   0.01468   0.01907
     Eigenvalues ---    0.02153   0.02233   0.02378   0.02497   0.02784
     Eigenvalues ---    0.05557   0.06825   0.09629   0.13110   0.15775
     Eigenvalues ---    0.16002   0.21648   0.22274   0.24033   0.24774
     Eigenvalues ---    0.24975   0.24986   0.32828   0.34676   0.34809
     Eigenvalues ---    0.35729   0.36014   0.36253   0.37259   0.38019
     Eigenvalues ---    0.44699   0.46705   0.50513   0.51766   0.56580
     Eigenvalues ---    0.57916   0.60055   0.62310   0.69506
 RFO step:  Lambda=-1.22357900D-03 EMin= 9.04562037D-03
 Quartic linear search produced a step of -0.31638.
 Iteration  1 RMS(Cart)=  0.03018629 RMS(Int)=  0.00091656
 Iteration  2 RMS(Cart)=  0.00081049 RMS(Int)=  0.00020268
 Iteration  3 RMS(Cart)=  0.00000111 RMS(Int)=  0.00020267
 Iteration  4 RMS(Cart)=  0.00000000 RMS(Int)=  0.00020267
 Variable       Old X    -DE/DX   Delta X   Delta X   Delta X     New X
                                 (Linear)    (Quad)   (Total)
    R1        2.56538   0.00179  -0.00887   0.01297   0.00408   2.56946
    R2        2.52298  -0.00539  -0.00282  -0.00341  -0.00624   2.51674
    R3        2.04004  -0.00047   0.00093  -0.00227  -0.00133   2.03871
    R4        2.46226   0.00369   0.01974  -0.02029  -0.00056   2.46171
    R5        2.51118   0.00609  -0.00044   0.00883   0.00841   2.51959
    R6        2.51860   0.00048   0.00063  -0.00006   0.00059   2.51919
    R7        2.73287   0.00123  -0.00011   0.00287   0.00276   2.73564
    R8        2.74874   0.00071  -0.00019   0.00178   0.00159   2.75033
    R9        2.06328  -0.00026   0.00002  -0.00063  -0.00062   2.06266
   R10        2.05865   0.00010   0.00022  -0.00005   0.00016   2.05882
   R11        2.53627   0.01292  -0.00177   0.01784   0.01608   2.55235
   R12        2.55782  -0.00135   0.00024  -0.00174  -0.00133   2.55649
   R13        2.42148   0.01179   0.02283  -0.01185   0.01081   2.43228
   R14        2.55525   0.00818   0.00879   0.00109   0.00976   2.56501
   R15        2.48380   0.00679  -0.00229   0.00979   0.00760   2.49140
   R16        2.03886   0.00037   0.00113  -0.00093   0.00020   2.03906
    A1        1.96204   0.00201   0.00814  -0.00764   0.00043   1.96247
    A2        2.16740  -0.00120  -0.00523   0.00462  -0.00059   2.16681
    A3        2.15374  -0.00082  -0.00291   0.00302   0.00013   2.15387
    A4        1.85731  -0.00078  -0.00440   0.00411  -0.00040   1.85691
    A5        1.85227  -0.00187  -0.00473   0.00481   0.00000   1.85227
    A6        1.99345  -0.00132   0.00312  -0.00721  -0.00430   1.98915
    A7        2.13247   0.00039   0.00047  -0.00076  -0.00047   2.13200
    A8        2.15621   0.00091  -0.00340   0.00611   0.00252   2.15873
    A9        1.75965   0.00197  -0.00214   0.00620   0.00403   1.76368
   A10        1.92559   0.00188   0.00179   0.00394   0.00574   1.93134
   A11        1.86926   0.00002   0.00397  -0.00376   0.00022   1.86948
   A12        1.91667  -0.00091  -0.00187  -0.00152  -0.00337   1.91330
   A13        1.94035  -0.00103  -0.00180  -0.00208  -0.00387   1.93648
   A14        1.87580  -0.00021   0.00385  -0.00592  -0.00206   1.87374
   A15        1.93669   0.00026  -0.00607   0.00951   0.00343   1.94012
   A16        2.10610   0.00151   0.00094   0.00338   0.00438   2.11048
   A17        2.28288   0.00089  -0.00479   0.01019   0.00547   2.28835
   A18        1.89298  -0.00237   0.00406  -0.01273  -0.00900   1.88398
   A19        1.84528   0.00586   0.00537   0.01020   0.01470   1.85997
   A20        1.96130  -0.01149  -0.01915   0.00036  -0.01979   1.94151
   A21        1.83681   0.00748   0.01414  -0.00219   0.01130   1.84811
   A22        1.88775   0.00061  -0.00425   0.00662   0.00219   1.88993
   A23        2.17357  -0.00051  -0.00363   0.00413   0.00059   2.17415
   A24        2.22181  -0.00010   0.00790  -0.01080  -0.00281   2.21901
    D1        0.00707  -0.00059  -0.00334  -0.01248  -0.01583  -0.00875
    D2       -3.13392  -0.00023  -0.00243  -0.00487  -0.00735  -3.14126
    D3       -0.00163  -0.00004  -0.00033  -0.00357  -0.00399  -0.00562
    D4        3.13936  -0.00040  -0.00124  -0.01111  -0.01240   3.12696
    D5       -0.00921   0.00097   0.00548   0.02289   0.02840   0.01919
    D6        0.00903  -0.00109  -0.00628  -0.02765  -0.03388  -0.02485
    D7       -3.08501  -0.00051  -0.01142   0.01429   0.00282  -3.08218
    D8       -0.00450   0.00068   0.00406   0.01907   0.02305   0.01855
    D9        3.08880   0.00007   0.00936  -0.02373  -0.01440   3.07440
   D10        1.72746  -0.00080   0.00791  -0.05903  -0.05113   1.67633
   D11       -0.38666  -0.00067   0.00656  -0.05648  -0.04991  -0.43657
   D12       -2.49121  -0.00048   0.01259  -0.06483  -0.05225  -2.54346
   D13       -1.36209  -0.00010   0.00216  -0.01276  -0.01061  -1.37270
   D14        2.80697   0.00004   0.00081  -0.01020  -0.00939   2.79758
   D15        0.70242   0.00023   0.00683  -0.01856  -0.01173   0.69069
   D16        2.43957  -0.00106   0.00639  -0.07437  -0.06801   2.37156
   D17       -0.76183  -0.00045   0.01265  -0.05415  -0.04148  -0.80331
   D18       -1.77240  -0.00047   0.01135  -0.07783  -0.06651  -1.83891
   D19        1.30939   0.00014   0.01760  -0.05761  -0.03998   1.26940
   D20        0.35017  -0.00091   0.00525  -0.07120  -0.06597   0.28421
   D21       -2.85122  -0.00030   0.01151  -0.05099  -0.03944  -2.89066
   D22        3.12724  -0.00148  -0.00949  -0.03354  -0.04336   3.08389
   D23        0.03337  -0.00204  -0.01430  -0.05029  -0.06472  -0.03135
   D24       -3.10920   0.00033   0.00234  -0.00129   0.00089  -3.10831
   D25        0.04303   0.00013  -0.00012   0.00389   0.00373   0.04676
   D26       -0.02184   0.00097   0.00798   0.01737   0.02511   0.00328
   D27        3.13040   0.00077   0.00552   0.02255   0.02794  -3.12484
   D28       -0.03339   0.00271   0.01549   0.06587   0.08136   0.04798
   D29        0.02026  -0.00213  -0.01077  -0.05591  -0.06644  -0.04618
   D30        0.00182   0.00059   0.00138   0.02136   0.02276   0.02457
   D31        3.13239   0.00079   0.00391   0.01611   0.01986  -3.13094
         Item               Value     Threshold  Converged?
 Maximum Force            0.012915     0.000450     NO 
 RMS     Force            0.003332     0.000300     NO 
 Maximum Displacement     0.105356     0.001800     NO 
 RMS     Displacement     0.030229     0.001200     NO 
 Predicted change in Energy=-1.054698D-03
 GradGradGradGradGradGradGradGradGradGradGradGradGradGradGradGradGradGrad

                          Input orientation:                          
 ---------------------------------------------------------------------
 Center     Atomic      Atomic             Coordinates (Angstroms)
 Number     Number       Type             X           Y           Z
 ---------------------------------------------------------------------
      1          6           0       -2.555422   -0.995056   -0.477763
      2          7           0       -2.731426    0.298600   -0.857579
      3          7           0       -1.543072    0.777677   -1.092674
      4          7           0       -0.690523   -0.224732   -0.878072
      5          7           0       -1.273057   -1.354551   -0.476434
      6          6           0        0.743490   -0.049784   -0.971075
      7          7           0        1.317260    0.194726    0.343924
      8          7           0        2.451268   -0.427313    0.732943
      9          7           0        2.744538    0.038105    1.896569
     10          7           0        1.802337    0.915170    2.327149
     11          6           0        0.929874    1.019067    1.344207
     12          1           0       -3.360039   -1.663688   -0.214290
     13          1           0        0.921314    0.795871   -1.637894
     14          1           0        1.198670   -0.959936   -1.360175
     15          1           0        0.044837    1.635893    1.321164
 ---------------------------------------------------------------------
                    Distance matrix (angstroms):
                    1          2          3          4          5
     1  C    0.000000
     2  N    1.359700   0.000000
     3  N    2.132030   1.302678   0.000000
     4  N    2.057060   2.107032   1.333310   0.000000
     5  N    1.331803   2.237190   2.235856   1.333097   0.000000
     6  C    3.466947   3.494180   2.434716   1.447636   2.452253
     7  N    4.133814   4.224483   3.253481   2.387553   3.127777
     8  N    5.182190   5.469646   4.554078   3.536560   4.024047
     9  N    5.898683   6.135094   5.278839   4.423501   4.869466
    10  N    5.523275   5.574734   4.786006   4.217484   4.740228
    11  C    4.418547   4.332672   3.480247   3.018484   3.715064
    12  H    1.078840   2.158599   3.167521   3.104436   2.125978
    13  H    4.079340   3.768113   2.524042   2.053528   3.284594
    14  H    3.856565   4.157183   3.256992   2.083746   2.654459
    15  H    4.113318   3.773978   3.014068   2.973099   3.729739
                    6          7          8          9         10
     6  C    0.000000
     7  N    1.455410   0.000000
     8  N    2.441866   1.350645   0.000000
     9  N    3.497899   2.114796   1.287108   0.000000
    10  N    3.595911   2.165069   2.182857   1.357345   0.000000
    11  C    2.556894   1.352839   2.186389   2.135509   1.318394
    12  H    4.473965   5.063836   6.016408   6.679647   6.305518
    13  H    1.091513   2.108494   3.075354   4.048554   4.063496
    14  H    1.089479   2.061858   2.496764   3.740611   4.180525
    15  H    2.929843   2.156622   3.223931   3.189420   2.149477
                   11         12         13         14         15
    11  C    0.000000
    12  H    5.294284   0.000000
    13  H    2.990454   5.138683   0.000000
    14  H    3.361901   4.752910   1.799142   0.000000
    15  H    1.079025   4.983777   3.198417   3.906307   0.000000
 Stoichiometry    C3H4N8
 Framework group  C1[X(C3H4N8)]
 Deg. of freedom    39
 Full point group                 C1      NOp   1
 Largest Abelian subgroup         C1      NOp   1
 Largest concise Abelian subgroup C1      NOp   1
                         Standard orientation:                         
 ---------------------------------------------------------------------
 Center     Atomic      Atomic             Coordinates (Angstroms)
 Number     Number       Type             X           Y           Z
 ---------------------------------------------------------------------
      1          6           0       -2.742417    0.163060    0.965203
      2          7           0       -2.906266    0.790852   -0.229709
      3          7           0       -1.921309    0.401049   -0.987921
      4          7           0       -1.209195   -0.457648   -0.257682
      5          7           0       -1.673366   -0.631051    0.979907
      6          6           0        0.017095   -1.052179   -0.745938
      7          7           0        1.173407   -0.304849   -0.274072
      8          7           0        2.263213   -0.942337    0.205692
      9          7           0        3.132546   -0.031892    0.474014
     10          7           0        2.632660    1.208707    0.242893
     11          6           0        1.420066    1.024898   -0.240834
     12          1           0       -3.404929    0.282979    1.808170
     13          1           0       -0.034165   -1.044587   -1.836220
     14          1           0        0.108665   -2.068246   -0.363592
     15          1           0        0.720132    1.785362   -0.550803
 ---------------------------------------------------------------------
 Rotational constants (GHZ):      3.3999349      0.6814147      0.6558097
 Standard basis: 6-31+G(d,p) (6D, 7F)
 There are   229 symmetry adapted cartesian basis functions of A   symmetry.
 There are   229 symmetry adapted basis functions of A   symmetry.
   229 basis functions,   380 primitive gaussians,   229 cartesian basis functions
    39 alpha electrons       39 beta electrons
       nuclear repulsion energy       591.2885138404 Hartrees.
 NAtoms=   15 NActive=   15 NUniq=   15 SFac= 1.00D+00 NAtFMM=   60 NAOKFM=F Big=F
 Integral buffers will be    131072 words long.
 Raffenetti 2 integral format.
 Two-electron integral symmetry is turned on.
 Nuclear repulsion after empirical dispersion term =      591.2790676961 Hartrees.
 One-electron integrals computed using PRISM.
 NBasis=   229 RedAO= T EigKep=  3.52D-05  NBF=   229
 NBsUse=   229 1.00D-06 EigRej= -1.00D+00 NBFU=   229
 Initial guess from the checkpoint file:  "Klapotke02_TZ02_1.chk"
 B after Tr=     0.000000    0.000000    0.000000
         Rot=    0.999032   -0.043960    0.000767    0.001697 Ang=  -5.04 deg.
 ExpMin= 4.38D-02 ExpMax= 4.17D+03 ExpMxC= 6.27D+02 IAcc=2 IRadAn=         4 AccDes= 0.00D+00
 Harris functional with IExCor=  402 and IRadAn=       4 diagonalized for initial guess.
 HarFok:  IExCor=  402 AccDes= 0.00D+00 IRadAn=         4 IDoV= 1 UseB2=F ITyADJ=14
 ICtDFT=  3500011 ScaDFX=  1.000000  1.000000  1.000000  1.000000
 FoFCou: FMM=F IPFlag=           0 FMFlag=      100000 FMFlg1=           0
         NFxFlg=           0 DoJE=T BraDBF=F KetDBF=T FulRan=T
         wScrn=  0.000000 ICntrl=     500 IOpCl=  0 I1Cent=   200000004 NGrid=           0
         NMat0=    1 NMatS0=      1 NMatT0=    0 NMatD0=    1 NMtDS0=    0 NMtDT0=    0
 Petite list used in FoFCou.
 Keep R1 ints in memory in canonical form, NReq=353042986.
 Requested convergence on RMS density matrix=1.00D-08 within 128 cycles.
 Requested convergence on MAX density matrix=1.00D-06.
 Requested convergence on             energy=1.00D-06.
 No special actions if energy rises.
 SCF Done:  E(RB3LYP) =  -554.654571603     A.U. after   12 cycles
            NFock= 12  Conv=0.68D-08     -V/T= 2.0090
 Calling FoFJK, ICntrl=      2127 FMM=F ISym2X=0 I1Cent= 0 IOpClX= 0 NMat=1 NMatS=1 NMatT=0.
 ***** Axes restored to original set *****
 -------------------------------------------------------------------
 Center     Atomic                   Forces (Hartrees/Bohr)
 Number     Number              X              Y              Z
 -------------------------------------------------------------------
      1        6           0.005042485   -0.001320750   -0.000672083
      2        7          -0.003591959   -0.000302971    0.002339324
      3        7           0.000491362    0.003857916   -0.002951169
      4        7           0.002167361   -0.003819432    0.001086661
      5        7          -0.004057278    0.000337451   -0.000685081
      6        6          -0.000485722    0.000025275    0.002045782
      7        7          -0.004718503    0.001648018    0.000741098
      8        7           0.006774582   -0.000998658   -0.006854605
      9        7          -0.000194200   -0.006269318    0.005829206
     10        7          -0.001508569    0.006442044   -0.001443632
     11        6           0.000262904   -0.000088085    0.000310657
     12        1          -0.000202755    0.000170886   -0.000027082
     13        1           0.000142224   -0.000019791    0.000373699
     14        1           0.000169803    0.000208093   -0.000154750
     15        1          -0.000291734    0.000129321    0.000061974
 -------------------------------------------------------------------
 Cartesian Forces:  Max     0.006854605 RMS     0.002793053

 GradGradGradGradGradGradGradGradGradGradGradGradGradGradGradGradGradGrad
 Berny optimization.
 Using GEDIIS/GDIIS optimizer.
 FormGI is forming the generalized inverse of G from B-inverse, IUseBI=4.
 Internal  Forces:  Max     0.004629257 RMS     0.001488216
 Search for a local minimum.
 Step number   4 out of a maximum of   81
 All quantities printed in internal units (Hartrees-Bohrs-Radians)
 Mixed Optimization -- RFO/linear search
 Update second derivatives using D2CorX and points    1    2    3    4
[...]
 Alpha virt. eigenvalues --    1.32221   1.37576   1.39867   1.42547   1.44455
 Alpha virt. eigenvalues --    1.46387   1.47223   1.49275   1.49504   1.51281
 Alpha virt. eigenvalues --    1.51722   1.53286   1.54602   1.54857   1.55544
 Alpha virt. eigenvalues --    1.56750   1.58053   1.60070   1.60514   1.62924
 Alpha virt. eigenvalues --    1.66050   1.66940   1.68091   1.70036   1.71486
 Alpha virt. eigenvalues --    1.73093   1.73409   1.73836   1.75403   1.77031
 Alpha virt. eigenvalues --    1.78342   1.79779   1.82158   1.83461   1.86775
 Alpha virt. eigenvalues --    1.88260   1.90214   1.91463   1.94653   1.94782
 Alpha virt. eigenvalues --    1.96820   1.98469   2.00669   2.02711   2.04653
 Alpha virt. eigenvalues --    2.06650   2.10515   2.12688   2.14569   2.17012
 Alpha virt. eigenvalues --    2.19760   2.22806   2.26044   2.27344   2.28384
 Alpha virt. eigenvalues --    2.29317   2.32013   2.33176   2.34529   2.36829
 Alpha virt. eigenvalues --    2.37575   2.38722   2.40542   2.42382   2.43530
 Alpha virt. eigenvalues --    2.45963   2.49198   2.49489   2.51352   2.53221
 Alpha virt. eigenvalues --    2.55891   2.57795   2.60288   2.62910   2.65107
 Alpha virt. eigenvalues --    2.67615   2.69827   2.71422   2.72628   2.74784
 Alpha virt. eigenvalues --    2.78389   2.79972   2.85859   2.87244   2.88461
 Alpha virt. eigenvalues --    2.89664   2.90829   2.92319   2.92849   2.95026
 Alpha virt. eigenvalues --    2.95513   3.00479   3.01185   3.04346   3.06852
 Alpha virt. eigenvalues --    3.13567   3.16316   3.18458   3.19341   3.20037
 Alpha virt. eigenvalues --    3.21499   3.23788   3.25321   3.26930   3.29035
 Alpha virt. eigenvalues --    3.30524   3.33117   3.34761   3.35215   3.38495
 Alpha virt. eigenvalues --    3.41685   3.45133   3.47853   3.49815   3.51453
 Alpha virt. eigenvalues --    3.54694   3.55976   3.56957   3.59287   3.61693
 Alpha virt. eigenvalues --    3.63562   3.64861   3.67307   3.68445   3.70784
 Alpha virt. eigenvalues --    3.71793   3.72358   3.73995   3.74924   3.76778
 Alpha virt. eigenvalues --    3.80144   3.83201   3.86450   3.87858   3.91150
 Alpha virt. eigenvalues --    3.92336   3.93253   3.94547   3.99077   4.00635
 Alpha virt. eigenvalues --    4.03052   4.05906   4.08679   4.13679   4.19077
 Alpha virt. eigenvalues --    4.21521   4.25283   4.27574   4.33973   4.36516
 Alpha virt. eigenvalues --    4.48122   4.48631   4.53836   4.55432   4.58206
 Alpha virt. eigenvalues --    4.59961   4.62354   4.64669   4.65384   4.67896
 Alpha virt. eigenvalues --    4.68487   4.69686   4.71393   4.72712   4.73338
 Alpha virt. eigenvalues --    4.74415   4.76505   4.78408   4.79039   4.79768
 Alpha virt. eigenvalues --    4.80936   4.81311   4.83203   4.86254   4.87286
 Alpha virt. eigenvalues --    4.90894   4.91239   4.95962   4.98070   4.99174
 Alpha virt. eigenvalues --    5.01312   5.03553   5.06878   5.07707   5.08952
 Alpha virt. eigenvalues --    5.12748   5.14160   5.14804   5.16239   5.17582
 Alpha virt. eigenvalues --    5.19216   5.21506   5.23223   5.26041   5.29049
 Alpha virt. eigenvalues --    5.33932   5.34907   5.37664   5.39451   5.40878
 Alpha virt. eigenvalues --    5.41823   5.48596   5.51518   5.51875   5.54778
 Alpha virt. eigenvalues --    5.57241   5.59401   5.62422   5.67983   5.72866
 Alpha virt. eigenvalues --    5.76269   5.76550   5.77770   5.80401   5.80601
 Alpha virt. eigenvalues --    5.97469   5.99368   6.10978   6.13060   6.24187
 Alpha virt. eigenvalues --    6.27718   6.64273   6.65394   6.77744   6.82503
 Alpha virt. eigenvalues --    6.94616   7.01759  22.74377  22.88535  22.97888
 Alpha virt. eigenvalues --   32.12247  32.17629  32.27189  32.28812  32.33220
 Alpha virt. eigenvalues --   32.37324  32.78649  32.89781
          Condensed to atoms (all electrons):
               1          2          3          4          5          6
     1  C    5.065826   0.267487   0.003906  -0.234692   0.408833   0.006782
     2  N    0.267487   6.642626   0.348280  -0.037915   0.004851   0.007798
     3  N    0.003906   0.348280   6.618047   0.217701  -0.182663  -0.019578
     4  N   -0.234692  -0.037915   0.217701   6.765779   0.333049   0.171074
     5  N    0.408833   0.004851  -0.182663   0.333049   6.626105  -0.044630
     6  C    0.006782   0.007798  -0.019578   0.171074  -0.044630   5.108346
     7  N    0.010246  -0.005037  -0.001608  -0.084201   0.005442   0.120117
     8  N   -0.003622  -0.000900  -0.002871   0.009046   0.007455  -0.025229
     9  N    0.000207   0.000212  -0.002311  -0.015453   0.007329   0.008610
    10  N   -0.000321   0.000260   0.001235   0.007296  -0.002731   0.003621
    11  C   -0.001756   0.003668  -0.017377   0.020615   0.009579  -0.047952
    12  H    0.446783  -0.044054   0.004466   0.015618  -0.060827  -0.000088
    13  H   -0.001410  -0.001028   0.015311  -0.062335  -0.005415   0.459431
    14  H   -0.000388   0.000408  -0.008503  -0.049759   0.016342   0.433377
    15  H   -0.000189   0.001632  -0.005193   0.007528   0.000374   0.008717
               7          8          9         10         11         12
     1  C    0.010246  -0.003622   0.000207  -0.000321  -0.001756   0.446783
     2  N   -0.005037  -0.000900   0.000212   0.000260   0.003668  -0.044054
     3  N   -0.001608  -0.002871  -0.002311   0.001235  -0.017377   0.004466
     4  N   -0.084201   0.009046  -0.015453   0.007296   0.020615   0.015618
     5  N    0.005442   0.007455   0.007329  -0.002731   0.009579  -0.060827
     6  C    0.120117  -0.025229   0.008610   0.003621  -0.047952  -0.000088
     7  N    7.014224   0.096705  -0.071988  -0.026775   0.096917   0.000224
     8  N    0.096705   6.628399   0.398940  -0.053513  -0.036385  -0.000099
     9  N   -0.071988   0.398940   6.511017   0.297541  -0.016733   0.000001
    10  N   -0.026775  -0.053513   0.297541   6.714950   0.263642  -0.000003
    11  C    0.096917  -0.036385  -0.016733   0.263642   5.292998  -0.000002
    12  H    0.000224  -0.000099   0.000001  -0.000003  -0.000002   0.461880
    13  H   -0.071742   0.002258  -0.000486   0.000575  -0.001122   0.000011
    14  H   -0.045951   0.009628  -0.001153  -0.001106   0.003829  -0.000028
    15  H   -0.072593   0.005302  -0.000033  -0.025558   0.442839  -0.000001
              13         14         15
     1  C   -0.001410  -0.000388  -0.000189
     2  N   -0.001028   0.000408   0.001632
     3  N    0.015311  -0.008503  -0.005193
     4  N   -0.062335  -0.049759   0.007528
     5  N   -0.005415   0.016342   0.000374
     6  C    0.459431   0.433377   0.008717
     7  N   -0.071742  -0.045951  -0.072593
     8  N    0.002258   0.009628   0.005302
     9  N   -0.000486  -0.001153  -0.000033
    10  N    0.000575  -0.001106  -0.025558
    11  C   -0.001122   0.003829   0.442839
    12  H    0.000011  -0.000028  -0.000001
    13  H    0.464437  -0.010739   0.000158
    14  H   -0.010739   0.435025  -0.000113
    15  H    0.000158  -0.000113   0.436157
 Mulliken charges:
               1
     1  C    0.032311
     2  N   -0.188286
     3  N    0.031159
     4  N   -0.063351
     5  N   -0.123092
     6  C   -0.190395
     7  N    0.036020
     8  N   -0.035114
     9  N   -0.115700
    10  N   -0.179113
    11  C   -0.012758
    12  H    0.176119
    13  H    0.212096
    14  H    0.219132
    15  H    0.200974
 Sum of Mulliken charges =   0.00000
 Mulliken charges with hydrogens summed into heavy atoms:
               1
     1  C    0.208429
     2  N   -0.188286
     3  N    0.031159
     4  N   -0.063351
     5  N   -0.123092
     6  C    0.240832
     7  N    0.036020
     8  N   -0.035114
     9  N   -0.115700
    10  N   -0.179113
    11  C    0.188216
 Electronic spatial extent (au):  <R**2>=           1668.2270
 Charge=              0.0000 electrons
 Dipole moment (field-independent basis, Debye):
    X=             -3.0238    Y=             -0.3889    Z=             -2.9777  Tot=              4.2616
 Quadrupole moment (field-independent basis, Debye-Ang):
   XX=            -77.9075   YY=            -66.7829   ZZ=            -57.7342
   XY=              6.8586   XZ=             -8.5634   YZ=              0.3576
 Traceless Quadrupole moment (field-independent basis, Debye-Ang):
   XX=            -10.4326   YY=              0.6920   ZZ=              9.7406
   XY=              6.8586   XZ=             -8.5634   YZ=              0.3576
 Octapole moment (field-independent basis, Debye-Ang**2):
  XXX=            -57.0422  YYY=              5.1003  ZZZ=             -7.7110  XYY=              3.5568
  XXY=            -20.1743  XXZ=             -2.5614  XZZ=            -11.0663  YZZ=             -5.5706
  YYZ=             -6.7580  XYZ=              0.1538
 Hexadecapole moment (field-independent basis, Debye-Ang**3):
 XXXX=          -1843.6447 YYYY=           -319.1420 ZZZZ=           -206.4521 XXXY=             55.6584
 XXXZ=           -100.7138 YYYX=             11.8644 YYYZ=              2.2995 ZZZX=            -18.9266
 ZZZY=             -0.7014 XXYY=           -387.4597 XXZZ=           -308.5727 YYZZ=            -90.5723
 XXYZ=            -21.7269 YYXZ=             -8.0682 ZZXY=              6.6403
 N-N= 5.907378815722D+02 E-N=-2.473608986152D+03  KE= 5.517942715686D+02
 Breneman (CHELPG) radii used.
 Generate Potential Derived Charges using the Breneman model, NDens= 1.
 Grid spacing= 0.300 Box extension= 2.800
 NStep X,Y,Z=   41     31     32   Total possible points=       40672
 Number of Points to Fit=   10483

 **********************************************************************

            Electrostatic Properties Using The SCF Density

 **********************************************************************

       Atomic Center    1 is at  -2.758166 -0.357418  0.886707
       Atomic Center    2 is at  -2.803947  0.891244  0.348543
       Atomic Center    3 is at  -1.816982  0.957891 -0.504021
       Atomic Center    4 is at  -1.216731 -0.236556 -0.466455
       Atomic Center    5 is at  -1.764810 -1.089774  0.397889
       Atomic Center    6 is at   0.000902 -0.502593 -1.209507
       Atomic Center    7 is at   1.180803 -0.127356 -0.456948
       Atomic Center    8 is at   2.024306 -1.066819  0.048905
       Atomic Center    9 is at   2.944171 -0.423726  0.681128
       Atomic Center   10 is at   2.736698  0.925906  0.622643
       Atomic Center   11 is at   1.640416  1.089649 -0.085353
       Atomic Center   12 is at  -3.455669 -0.718274  1.626592
       Atomic Center   13 is at  -0.050852  0.071370 -2.135385
       Atomic Center   14 is at   0.063343 -1.570914 -1.411341
       Atomic Center   15 is at   1.159710  2.024312 -0.332736
   10483 points will be used for fitting atomic charges
 Fitting point charges to electrostatic potential
 Charges from ESP fit, RMS=   0.00555 RRMS=   0.23034:
 ESP charges:
               1
     1  C    0.467691
     2  N   -0.359113
     3  N   -0.254235
     4  N    0.751667
     5  N   -0.582554
     6  C   -0.609225
     7  N    0.553780
     8  N   -0.316918
     9  N   -0.043717
    10  N   -0.340408
    11  C    0.181134
    12  H    0.062925
    13  H    0.170905
    14  H    0.249648
    15  H    0.068420
 Sum of ESP charges =   0.00000
 ESP charges with hydrogens summed into heavy atoms:
               1
     1  C    0.530616
     2  N   -0.359113
     3  N   -0.254235
     4  N    0.751667
     5  N   -0.582554
     6  C   -0.188672
     7  N    0.553780
     8  N   -0.316918
     9  N   -0.043717
    10  N   -0.340408
    11  C    0.249554
 Charge=   0.00000 Dipole=    -2.8334    -0.4126    -2.8402 Tot=     4.0330
 -----------------------------------------------------------------

              Electrostatic Properties (Atomic Units)

 -----------------------------------------------------------------
    Center     Electric         -------- Electric Field --------
               Potential          X             Y             Z
 -----------------------------------------------------------------
    1 Atom    -14.676365      0.003250      0.001054     -0.002828
    2 Atom    -18.326171     -0.022409      0.021406      0.008776
    3 Atom    -18.278866      0.007479      0.030069     -0.019437
    4 Atom    -18.218277     -0.000027      0.001477     -0.001706
    5 Atom    -18.307225      0.003653     -0.030034      0.011565
    6 Atom    -14.608776      0.000532     -0.004437     -0.008887
    7 Atom    -18.249018      0.001636      0.003917      0.001298
    8 Atom    -18.296892      0.000673     -0.036540     -0.001006
    9 Atom    -18.314565      0.030190     -0.016920      0.018610
   10 Atom    -18.345475      0.017043      0.023576      0.012596
   11 Atom    -14.661128      0.006250     -0.001183      0.004230
   12 Atom     -1.040147     -0.010173     -0.005309      0.010846
   13 Atom     -1.020648     -0.000928      0.008769     -0.013717
   14 Atom     -1.019144      0.000990     -0.016269     -0.002672
   15 Atom     -1.019488     -0.007004      0.014279     -0.003693
 -----------------------------------------------------------------
 -----------------------------------------------------
    Center         ---- Electric Field Gradient ----
                     XX            YY            ZZ
 -----------------------------------------------------
    1 Atom     -512.041868   -512.077540   -512.061961
    2 Atom     -833.921285   -833.326412   -834.439385
    3 Atom     -834.904031   -834.421149   -834.435295
    4 Atom     -831.381670   -831.771242   -831.257905
    5 Atom     -833.935512   -833.104363   -834.326889
    6 Atom     -511.465093   -510.766308   -511.087298
    7 Atom     -831.230499   -831.423819   -830.843761
    8 Atom     -835.269989   -833.915929   -835.126062
    9 Atom     -834.290270   -835.077263   -834.899343
   10 Atom     -833.772397   -834.070145   -834.114011
   11 Atom     -511.913059   -511.921400   -512.069372
   12 Atom       -1.848064     -1.712090     -1.868868
   13 Atom       -1.691141     -1.792624     -1.990111
   14 Atom       -1.673780     -2.071182     -1.673801
   15 Atom       -1.724823     -1.979777     -1.654930
 -----------------------------------------------------
 -----------------------------------------------------
    Center         ---- Electric Field Gradient ----
                     XY            XZ            YZ
 -----------------------------------------------------
    1 Atom        0.023256     -0.194885     -0.106713
    2 Atom       -0.754599     -0.075054      0.100834
    3 Atom        0.488685     -0.249628     -0.674632
    4 Atom        0.134762      0.317837      0.310078
    5 Atom       -0.668084      0.132399      0.077276
    6 Atom       -0.042956      0.023477     -0.154309
    7 Atom        0.121234     -0.411822      0.044778
    8 Atom        0.419635     -0.133570      0.346385
    9 Atom       -0.540900      0.594782     -0.340593
   10 Atom        0.635201      0.470319      0.429651
   11 Atom       -0.158813      0.159579     -0.087022
   12 Atom       -0.095355      0.209882      0.108436
   13 Atom        0.007779     -0.015366      0.192527
   14 Atom        0.021418      0.004611     -0.085005
   15 Atom        0.174233     -0.054531      0.090194
 -----------------------------------------------------
 -----------------------------------------------------
    Center         ---- Electric Field Gradient ----
                   ----       Eigenvalues       ----
 -----------------------------------------------------
    1 Atom     -512.268993   -512.088902   -511.823474
    2 Atom     -834.450789   -834.433186   -832.803106
    3 Atom     -835.260713   -834.950721   -833.549041
    4 Atom     -831.917558   -831.616829   -830.876430
    5 Atom     -834.470409   -834.163214   -832.733141
    6 Atom     -511.468290   -511.149344   -510.701066
    7 Atom     -831.589100   -831.327706   -830.581273
    8 Atom     -835.530499   -835.049530   -833.731951
    9 Atom     -835.362473   -835.262432   -833.641971
   10 Atom     -834.585697   -834.442835   -832.928021
   11 Atom     -512.169572   -512.055550   -511.678709
   12 Atom       -2.119690     -1.662970     -1.646362
   13 Atom       -2.108446     -1.690556     -1.674874
   14 Atom       -2.089756     -1.672629     -1.656377
   15 Atom       -2.093392     -1.641369     -1.624769
 -----------------------------------------------------
 -----------------------------------------------------
    Center         ---- Electric Field Gradient ----
                       ( tensor representation )
                   3XX-RR        3YY-RR        3ZZ-RR
 -----------------------------------------------------
    1 Atom        0.018589     -0.017084     -0.001505
    2 Atom       -0.025591      0.569282     -0.543691
    3 Atom       -0.317206      0.165676      0.151530
    4 Atom        0.088603     -0.300970      0.212367
    5 Atom       -0.146591      0.684558     -0.537967
    6 Atom       -0.358860      0.339925      0.018935
    7 Atom       -0.064473     -0.257792      0.322265
    8 Atom       -0.499329      0.854731     -0.355402
    9 Atom        0.465355     -0.321638     -0.143718
   10 Atom        0.213120     -0.084627     -0.128494
   11 Atom        0.054885      0.046543     -0.101428
   12 Atom       -0.038390      0.097584     -0.059194
   13 Atom        0.133484      0.032001     -0.165485
   14 Atom        0.132474     -0.264928      0.132454
   15 Atom        0.061687     -0.193267      0.131580
 -----------------------------------------------------
 -----------------------------------------------------
    Center         ---- Electric Field Gradient ----
                       ( tensor representation )
                   ----       Eigenvalues       ----
 -----------------------------------------------------
    1 Atom       -0.208536     -0.028446      0.236982
    2 Atom       -0.555095     -0.537492      1.092588
    3 Atom       -0.673888     -0.363896      1.037784
    4 Atom       -0.447286     -0.146557      0.593843
    5 Atom       -0.681488     -0.374292      1.055780
    6 Atom       -0.362056     -0.043111      0.405167
    7 Atom       -0.423074     -0.161680      0.584754
    8 Atom       -0.759839     -0.278870      1.038709
    9 Atom       -0.606848     -0.506807      1.113654
   10 Atom       -0.600179     -0.457317      1.057497
   11 Atom       -0.201629     -0.087606      0.289235
   12 Atom       -0.310016      0.146704      0.163312
   13 Atom       -0.283821      0.134069      0.149751
   14 Atom       -0.283502      0.133625      0.149877
   15 Atom       -0.306882      0.145141      0.161741
 -----------------------------------------------------
 1\1\GINC-LP062\SP\RM062X\Gen\C3H4N8\U6023034\09-Apr-2021\0\\# M062X/de
 f2TZVP extrabasis empiricaldispersion=GD3 int=(grid=ultrafine) prop=(e
 fg) pop=chelpg guess=read geom=check\\Klapotke02_TZ02_1.mol\\0,1\C,0,-
 2.5311663649,-1.1462813342,-0.5372683688\N,0,-2.7731180225,0.188733809
 5,-0.637614233\N,0,-1.6141565486,0.7557935711,-0.8392537844\N,0,-0.718
 2008854,-0.2366849183,-0.8650920391\N,0,-1.2446327133,-1.4450852904,-0
 .669897639\C,0,0.7061302938,0.0231583732,-0.9614887123\N,0,1.301486341
 8,0.2361825806,0.3421553429\N,0,2.1390650218,-0.6820241731,0.894726422
 3\N,0,2.469491313,-0.220136559,2.0509723988\N,0,1.8677919902,0.9822727
 326,2.2962106043\C,0,1.1486074832,1.2477492052,1.2274737355\H,0,-3.300
 1439144,-1.8851833305,-0.3733932007\H,0,0.8336960241,0.9115569571,-1.5
 810341243\H,0,1.1919472652,-0.8424604911,-1.4094078324\H,0,0.523252716
 ,2.1124588671,1.0629114303\\Version=EM64L-G09RevD.01\State=1-A\HF=-554
 .6238657\RMSD=3.541e-09\Dipole=-0.5135013,0.1574991,-1.5882675\Quadrup
 ole=-3.1149419,3.5286284,-0.4136865,6.214864,-8.5574995,0.1595457\PG=C
 01 [X(C3H4N8)]\\@


 GARBAGE IN, GARBAGE OUT
 Job cpu time:       0 days  0 hours  5 minutes 58.1 seconds.
 File lengths (MBytes):  RWF=     82 Int=      0 D2E=      0 Chk=     12 Scr=      1
 Normal termination of Gaussian 09 at Fri Apr  9 08:42:24 2021.
