 Entering Gaussian System, Link 0=/uufs/chpc.utah.edu/sys/pkg/gaussian09/D01/EM64TL/g09/g09
 Input=Klapotke02_TZ01_1.com
 Output=Klapotke02_TZ01_1.log
 Initial command:
 /uufs/chpc.utah.edu/sys/pkg/gaussian09/D01/EM64TL/g09/l1.exe "/scratch/general/lustre/u6023034/2614048/lonepeak.peaks/Gau-28565.inp" -scrdir="/scratch/general/lustre/u6023034/2614048/lonepeak.peaks/"
 Entering Link 1 = /uufs/chpc.utah.edu/sys/pkg/gaussian09/D01/EM64TL/g09/l1.exe PID=     28567.
  
 Copyright (c) 1988,1990,1992,1993,1995,1998,2003,2009,2013,
            Gaussian, Inc.  All Rights Reserved.
  
 This is part of the Gaussian(R) 09 program.  It is based on
 the Gaussian(R) 03 system (copyright 2003, Gaussian, Inc.),
 the Gaussian(R) 98 system (copyright 1998, Gaussian, Inc.),
 the Gaussian(R) 94 system (copyright 1995, Gaussian, Inc.),
 the Gaussian 92(TM) system (copyright 1992, Gaussian, Inc.),
 the Gaussian 90(TM) system (copyright 1990, Gaussian, Inc.),
 the Gaussian 88(TM) system (copyright 1988, Gaussian, Inc.),
 the Gaussian 86(TM) system (copyright 1986, Carnegie Mellon
 University), and the Gaussian 82(TM) system (copyright 1983,
 Carnegie Mellon University). Gaussian is a federally registered
 trademark of Gaussian, Inc.
  
 This software contains proprietary and confidential information,
 including trade secrets, belonging to Gaussian, Inc.
  
 This software is provided under written license and may be
 used, copied, transmitted, or stored only in accord with that
 written license.
  
 The following legend is applicable only to US Government
 contracts under FAR:
  
                    RESTRICTED RIGHTS LEGEND
  
 Use, reproduction and disclosure by the US Government is
 subject to restrictions as set forth in subparagraphs (a)
 and (c) of the Commercial Computer Software - Restricted
 Rights clause in FAR 52.227-19.
  
 Gaussian, Inc.
 340 Quinnipiac St., Bldg. 40, Wallingford CT 06492
  
  
 ---------------------------------------------------------------
 Warning -- This program may not be used in any manner that
 competes with the business of Gaussian, Inc. or will provide
 assistance to any competitor of Gaussian, Inc.  The licensee
 of this program is prohibited from giving any competitor of
 Gaussian, Inc. access to this program.  By using this program,
 the user acknowledges that Gaussian, Inc. is engaged in the
 business of creating and licensing software in the field of
 computational chemistry and represents and warrants to the
 licensee that it is not a competitor of Gaussian, Inc. and that
 it will not use this program in any manner prohibited above.
 ---------------------------------------------------------------
  

 Cite this work as:
 Gaussian 09, Revision D.01,
 M. J. Frisch, G. W. Trucks, H. B. Schlegel, G. E. Scuseria, 
 M. A. Robb, J. R. Cheeseman, G. Scalmani, V. Barone, B. Mennucci, 
 G. A. Petersson, H. Nakatsuji, M. Caricato, X. Li, H. P. Hratchian, 
 A. F. Izmaylov, J. Bloino, G. Zheng, J. L. Sonnenberg, M. Hada, 
 M. Ehara, K. Toyota, R. Fukuda, J. Hasegawa, M. Ishida, T. Nakajima, 
 Y. Honda, O. Kitao, H. Nakai, T. Vreven, J. A. Montgomery, Jr., 
 J. E. Peralta, F. Ogliaro, M. Bearpark, J. J. Heyd, E. Brothers, 
 K. N. Kudin, V. N. Staroverov, T. Keith, R. Kobayashi, J. Normand, 
 K. Raghavachari, A. Rendell, J. C. Burant, S. S. Iyengar, J. Tomasi, 
 M. Cossi, N. Rega, J. M. Millam, M. Klene, J. E. Knox, J. B. Cross, 
 V. Bakken, C. Adamo, J. Jaramillo, R. Gomperts, R. E. Stratmann, 
 O. Yazyev, A. J. Austin, R. Cammi, C. Pomelli, J. W. Ochterski, 
 R. L. Martin, K. Morokuma, V. G. Zakrzewski, G. A. Voth, 
 P. Salvador, J. J. Dannenberg, S. Dapprich, A. D. Daniels, 
 O. Farkas, J. B. Foresman, J. V. Ortiz, J. Cioslowski, 
 and D. J. Fox, Gaussian, Inc., Wallingford CT, 2013.
 
 ******************************************
 Gaussian 09:  EM64L-G09RevD.01 24-Apr-2013
                 9-Apr-2021 
 ******************************************
 %NProcShared=12
 Will use up to   12 processors via shared memory.
 %mem=16GB
 %chk=Klapotke02_TZ01_1.chk
 ----------------------------------------------------------------------
 # B3LYP/6-31+G(d,p) empiricaldispersion=GD3 int=(grid=ultrafine) opt f
 req=noraman
 ----------------------------------------------------------------------
 1/14=-1,18=20,19=15,26=4,38=1/1,3;
 2/9=110,12=2,17=6,18=5,40=1/2;
 3/5=1,6=6,7=111,11=2,16=1,25=1,30=1,71=1,74=-5,75=-5,124=31/1,2,3;
 4//1;
 5/5=2,38=5/2;
 6/7=2,8=2,9=2,10=2,28=1/1;
 7//1,2,3,16;
 1/14=-1,18=20,19=15,26=4/3(2);
 2/9=110/2;
 99//99;
 2/9=110/2;
 3/5=1,6=6,7=111,11=2,16=1,25=1,30=1,71=1,74=-5,75=-5,124=31/1,2,3;
 4/5=5,16=3,69=1/1;
 5/5=2,38=5/2;
 7//1,2,3,16;
 1/14=-1,18=20,19=15,26=4/3(-5);
 2/9=110/2;
 6/7=2,8=2,9=2,10=2,19=2,28=1/1;
 99/9=1/99;
 ---------------------
 Klapotke02_TZ01_1.mol
 ---------------------
 Symbolic Z-matrix:
 Charge =  0 Multiplicity = 1
 N                    -2.44387  -1.04449  -1.76471 
 N                    -2.94427  -0.30589  -0.69501 
 C                    -1.91827   0.36041  -0.23181 
 N                    -0.79217   0.07271  -0.96371 
 N                    -1.09217  -0.80389  -1.92631 
 C                     0.56653   0.56971  -0.80401 
 N                     1.11413   0.25141   0.50649 
 N                     1.49993   1.22041   1.34159 
 N                     1.94643   0.55011   2.46509 
 N                     1.81913  -0.82619   2.29229 
 C                     1.31203  -0.97349   1.09539 
 H                    -1.89117   1.03761   0.60979 
 H                     0.55823   1.65041  -0.95561 
 H                     1.21763   0.13501  -1.56431 
 H                     1.04783  -1.89389   0.59479 
 

 GradGradGradGradGradGradGradGradGradGradGradGradGradGradGradGradGradGrad
 Berny optimization.
 Initialization pass.
                           ----------------------------
                           !    Initial Parameters    !
                           ! (Angstroms and Degrees)  !
 --------------------------                            --------------------------
 ! Name  Definition              Value          Derivative Info.                !
 --------------------------------------------------------------------------------
 ! R1    R(1,2)                  1.3929         estimate D2E/DX2                !
 ! R2    R(1,5)                  1.3824         estimate D2E/DX2                !
 ! R3    R(2,3)                  1.3081         estimate D2E/DX2                !
 ! R4    R(3,4)                  1.3735         estimate D2E/DX2                !
 ! R5    R(3,12)                 1.0806         estimate D2E/DX2                !
 ! R6    R(4,5)                  1.336          estimate D2E/DX2                !
 ! R7    R(4,6)                  1.4555         estimate D2E/DX2                !
 ! R8    R(6,7)                  1.4555         estimate D2E/DX2                !
 ! R9    R(6,13)                 1.0913         estimate D2E/DX2                !
 ! R10   R(6,14)                 1.0913         estimate D2E/DX2                !
 ! R11   R(7,8)                  1.3361         estimate D2E/DX2                !
 ! R12   R(7,11)                 1.3734         estimate D2E/DX2                !
 ! R13   R(8,9)                  1.3824         estimate D2E/DX2                !
 ! R14   R(9,10)                 1.3929         estimate D2E/DX2                !
 ! R15   R(10,11)                1.3082         estimate D2E/DX2                !
 ! R16   R(11,15)                1.0805         estimate D2E/DX2                !
 ! A1    A(2,1,5)              110.4108         estimate D2E/DX2                !
 ! A2    A(1,2,3)              105.085          estimate D2E/DX2                !
 ! A3    A(2,3,4)              110.3448         estimate D2E/DX2                !
 ! A4    A(2,3,12)             127.9283         estimate D2E/DX2                !
 ! A5    A(4,3,12)             121.7176         estimate D2E/DX2                !
 ! A6    A(3,4,5)              109.7098         estimate D2E/DX2                !
 ! A7    A(3,4,6)              129.4448         estimate D2E/DX2                !
 ! A8    A(5,4,6)              120.8431         estimate D2E/DX2                !
 ! A9    A(1,5,4)              104.4492         estimate D2E/DX2                !
 ! A10   A(4,6,7)              112.0432         estimate D2E/DX2                !
 ! A11   A(4,6,13)             108.4087         estimate D2E/DX2                !
 ! A12   A(4,6,14)             110.15           estimate D2E/DX2                !
 ! A13   A(7,6,13)             110.1506         estimate D2E/DX2                !
 ! A14   A(7,6,14)             108.4029         estimate D2E/DX2                !
 ! A15   A(13,6,14)            107.5906         estimate D2E/DX2                !
 ! A16   A(6,7,8)              120.849          estimate D2E/DX2                !
 ! A17   A(6,7,11)             129.4415         estimate D2E/DX2                !
 ! A18   A(8,7,11)             109.7064         estimate D2E/DX2                !
 ! A19   A(7,8,9)              104.4528         estimate D2E/DX2                !
 ! A20   A(8,9,10)             110.4116         estimate D2E/DX2                !
 ! A21   A(9,10,11)            105.0805         estimate D2E/DX2                !
 ! A22   A(7,11,10)            110.3484         estimate D2E/DX2                !
 ! A23   A(7,11,15)            121.7221         estimate D2E/DX2                !
 ! A24   A(10,11,15)           127.9201         estimate D2E/DX2                !
 ! D1    D(5,1,2,3)              0.1206         estimate D2E/DX2                !
 ! D2    D(2,1,5,4)             -0.1635         estimate D2E/DX2                !
 ! D3    D(1,2,3,4)             -0.0286         estimate D2E/DX2                !
 ! D4    D(1,2,3,12)          -178.9219         estimate D2E/DX2                !
 ! D5    D(2,3,4,5)             -0.0754         estimate D2E/DX2                !
 ! D6    D(2,3,4,6)           -179.5146         estimate D2E/DX2                !
 ! D7    D(12,3,4,5)           178.8984         estimate D2E/DX2                !
 ! D8    D(12,3,4,6)            -0.5409         estimate D2E/DX2                !
 ! D9    D(3,4,5,1)              0.1433         estimate D2E/DX2                !
 ! D10   D(6,4,5,1)            179.6389         estimate D2E/DX2                !
 ! D11   D(3,4,6,7)             59.4379         estimate D2E/DX2                !
 ! D12   D(3,4,6,13)           -62.3289         estimate D2E/DX2                !
 ! D13   D(3,4,6,14)          -179.8067         estimate D2E/DX2                !
 ! D14   D(5,4,6,7)           -119.9472         estimate D2E/DX2                !
 ! D15   D(5,4,6,13)           118.286          estimate D2E/DX2                !
 ! D16   D(5,4,6,14)             0.8082         estimate D2E/DX2                !
 ! D17   D(4,6,7,8)           -119.6201         estimate D2E/DX2                !
 ! D18   D(4,6,7,11)            59.6766         estimate D2E/DX2                !
 ! D19   D(13,6,7,8)             1.1431         estimate D2E/DX2                !
 ! D20   D(13,6,7,11)         -179.5602         estimate D2E/DX2                !
 ! D21   D(14,6,7,8)           118.6178         estimate D2E/DX2                !
 ! D22   D(14,6,7,11)          -62.0855         estimate D2E/DX2                !
 ! D23   D(6,7,8,9)            179.588          estimate D2E/DX2                !
 ! D24   D(11,7,8,9)             0.165          estimate D2E/DX2                !
 ! D25   D(6,7,11,10)         -179.4622         estimate D2E/DX2                !
 ! D26   D(6,7,11,15)           -0.4936         estimate D2E/DX2                !
 ! D27   D(8,7,11,10)           -0.1036         estimate D2E/DX2                !
 ! D28   D(8,7,11,15)          178.865          estimate D2E/DX2                !
 ! D29   D(7,8,9,10)            -0.1725         estimate D2E/DX2                !
 ! D30   D(8,9,10,11)            0.1131         estimate D2E/DX2                !
 ! D31   D(9,10,11,7)           -0.0075         estimate D2E/DX2                !
 ! D32   D(9,10,11,15)        -178.8954         estimate D2E/DX2                !
 --------------------------------------------------------------------------------
 Trust Radius=3.00D-01 FncErr=1.00D-07 GrdErr=1.00D-06
 Number of steps in this run=     82 maximum allowed number of steps=    100.
 GradGradGradGradGradGradGradGradGradGradGradGradGradGradGradGradGradGrad

                          Input orientation:                          
 ---------------------------------------------------------------------
 Center     Atomic      Atomic             Coordinates (Angstroms)
 Number     Number       Type             X           Y           Z
 ---------------------------------------------------------------------
      1          7           0       -2.443870   -1.044490   -1.764710
      2          7           0       -2.944270   -0.305890   -0.695010
      3          6           0       -1.918270    0.360410   -0.231810
      4          7           0       -0.792170    0.072710   -0.963710
      5          7           0       -1.092170   -0.803890   -1.926310
      6          6           0        0.566530    0.569710   -0.804010
      7          7           0        1.114130    0.251410    0.506490
      8          7           0        1.499930    1.220410    1.341590
      9          7           0        1.946430    0.550110    2.465090
     10          7           0        1.819130   -0.826190    2.292290
     11          6           0        1.312030   -0.973490    1.095390
     12          1           0       -1.891170    1.037610    0.609790
     13          1           0        0.558230    1.650410   -0.955610
     14          1           0        1.217630    0.135010   -1.564310
     15          1           0        1.047830   -1.893890    0.594790
 ---------------------------------------------------------------------
                    Distance matrix (angstroms):
                    1          2          3          4          5
     1  N    0.000000
     2  N    1.392906   0.000000
     3  C    2.144710   1.308123   0.000000
     4  N    2.148918   2.201607   1.373517   0.000000
     5  N    1.382424   2.279118   2.215709   1.336049   0.000000
     6  C    3.548393   3.619982   2.558408   1.455534   2.428502
     7  N    4.415549   4.269051   3.122886   2.414001   3.449628
     8  N    5.507489   5.121352   3.859958   3.447513   4.636372
     9  N    6.301483   5.885398   4.716478   4.414126   5.509156
    10  N    5.888979   5.646650   4.663396   4.269478   5.125695
    11  C    4.721440   4.665545   3.738394   3.124434   3.865180
    12  H    3.206067   2.148608   1.080567   2.148193   3.234397
    13  H    4.114576   4.020265   2.884621   2.076724   3.112823
    14  H    3.852008   4.274516   3.414708   2.098547   2.519475
    15  H    4.298917   4.485776   3.816135   3.111597   3.481903
                    6          7          8          9         10
     6  C    0.000000
     7  N    1.455538   0.000000
     8  N    2.428630   1.336112   0.000000
     9  N    3.548454   2.148967   1.382359   0.000000
    10  N    3.620030   2.201665   2.279099   1.392935   0.000000
    11  C    2.558311   1.373444   2.215653   2.144737   1.308211
    12  H    2.873682   3.108152   3.473976   4.290334   4.480054
    13  H    1.091313   2.098562   2.519688   3.852135   4.274608
    14  H    1.091307   2.076650   3.114810   4.115765   4.019835
    15  H    2.873607   2.148140   3.234342   3.206032   2.148579
                   11         12         13         14         15
    11  C    0.000000
    12  H    3.813243   0.000000
    13  H    3.414625   2.970785   0.000000
    14  H    2.883000   3.899492   1.761182   0.000000
    15  H    1.080527   4.151101   3.899424   2.967656   0.000000
 Stoichiometry    C3H4N8
 Framework group  C1[X(C3H4N8)]
 Deg. of freedom    39
 Full point group                 C1      NOp   1
 Largest Abelian subgroup         C1      NOp   1
 Largest concise Abelian subgroup C1      NOp   1
                         Standard orientation:                         
 ---------------------------------------------------------------------
 Center     Atomic      Atomic             Coordinates (Angstroms)
 Number     Number       Type             X           Y           Z
 ---------------------------------------------------------------------
      1          7           0        3.109550   -0.339055    0.521239
      2          7           0        2.741273   -1.005876   -0.644913
      3          6           0        1.583253   -0.496247   -0.977257
      4          7           0        1.205576    0.463103   -0.069756
      5          7           0        2.140195    0.579803    0.877816
      6          6           0        0.000275    1.278280   -0.033496
      7          7           0       -1.205661    0.467081    0.045667
      8          7           0       -2.137313    0.529493   -0.910013
      9          7           0       -3.107754   -0.367758   -0.504918
     10          7           0       -2.743142   -0.967312    0.698352
     11          6           0       -1.585996   -0.439513    1.004718
     12          1           0        0.957820   -0.760685   -1.817811
     13          1           0       -0.022731    1.899512   -0.930438
     14          1           0        0.023727    1.945814    0.829522
     15          1           0       -0.963066   -0.656117    1.860627
 ---------------------------------------------------------------------
 Rotational constants (GHZ):      3.2978865      0.6424314      0.6389286
 Standard basis: 6-31+G(d,p) (6D, 7F)
 There are   229 symmetry adapted cartesian basis functions of A   symmetry.
 There are   229 symmetry adapted basis functions of A   symmetry.
   229 basis functions,   380 primitive gaussians,   229 cartesian basis functions
    39 alpha electrons       39 beta electrons
       nuclear repulsion energy       581.5675920007 Hartrees.
 NAtoms=   15 NActive=   15 NUniq=   15 SFac= 1.00D+00 NAtFMM=   60 NAOKFM=F Big=F
 Integral buffers will be    131072 words long.
 Raffenetti 2 integral format.
 Two-electron integral symmetry is turned on.
 Nuclear repulsion after empirical dispersion term =      581.5578505617 Hartrees.
 One-electron integrals computed using PRISM.
 NBasis=   229 RedAO= T EigKep=  4.27D-05  NBF=   229
 NBsUse=   229 1.00D-06 EigRej= -1.00D+00 NBFU=   229
 ExpMin= 4.38D-02 ExpMax= 4.17D+03 ExpMxC= 6.27D+02 IAcc=3 IRadAn=         5 AccDes= 0.00D+00
 Harris functional with IExCor=  402 and IRadAn=       5 diagonalized for initial guess.
 HarFok:  IExCor=  402 AccDes= 0.00D+00 IRadAn=         5 IDoV= 1 UseB2=F ITyADJ=14
 ICtDFT=  3500011 ScaDFX=  1.000000  1.000000  1.000000  1.000000
 FoFCou: FMM=F IPFlag=           0 FMFlag=      100000 FMFlg1=           0
         NFxFlg=           0 DoJE=T BraDBF=F KetDBF=T FulRan=T
         wScrn=  0.000000 ICntrl=     500 IOpCl=  0 I1Cent=   200000004 NGrid=           0
         NMat0=    1 NMatS0=      1 NMatT0=    0 NMatD0=    1 NMtDS0=    0 NMtDT0=    0
 Petite list used in FoFCou.
 Keep R1 ints in memory in canonical form, NReq=353042986.
 Requested convergence on RMS density matrix=1.00D-08 within 128 cycles.
 Requested convergence on MAX density matrix=1.00D-06.
 Requested convergence on             energy=1.00D-06.
 No special actions if energy rises.
 SCF Done:  E(RB3LYP) =  -554.632168369     A.U. after   14 cycles
            NFock= 14  Conv=0.29D-08     -V/T= 2.0100

 **********************************************************************

            Population analysis using the SCF density.

 **********************************************************************

 Orbital symmetries:
       Occupied  (A) (A) (A) (A) (A) (A) (A) (A) (A) (A) (A) (A)
                 (A) (A) (A) (A) (A) (A) (A) (A) (A) (A) (A) (A)
                 (A) (A) (A) (A) (A) (A) (A) (A) (A) (A) (A) (A)
                 (A) (A) (A)
       Virtual   (A) (A) (A) (A) (A) (A) (A) (A) (A) (A) (A) (A)
                 (A) (A) (A) (A) (A) (A) (A) (A) (A) (A) (A) (A)
                 (A) (A) (A) (A) (A) (A) (A) (A) (A) (A) (A) (A)
                 (A) (A) (A) (A) (A) (A) (A) (A) (A) (A) (A) (A)
                 (A) (A) (A) (A) (A) (A) (A) (A) (A) (A) (A) (A)
                 (A) (A) (A) (A) (A) (A) (A) (A) (A) (A) (A) (A)
                 (A) (A) (A) (A) (A) (A) (A) (A) (A) (A) (A) (A)
                 (A) (A) (A) (A) (A) (A) (A) (A) (A) (A) (A) (A)
                 (A) (A) (A) (A) (A) (A) (A) (A) (A) (A) (A) (A)
                 (A) (A) (A) (A) (A) (A) (A) (A) (A) (A) (A) (A)
                 (A) (A) (A) (A) (A) (A) (A) (A) (A) (A) (A) (A)
                 (A) (A) (A) (A) (A) (A) (A) (A) (A) (A) (A) (A)
                 (A) (A) (A) (A) (A) (A) (A) (A) (A) (A) (A) (A)
                 (A) (A) (A) (A) (A) (A) (A) (A) (A) (A) (A) (A)
                 (A) (A) (A) (A) (A) (A) (A) (A) (A) (A) (A) (A)
                 (A) (A) (A) (A) (A) (A) (A) (A) (A) (A)
 The electronic state is 1-A.
 Alpha  occ. eigenvalues --  -14.49533 -14.49528 -14.45480 -14.45476 -14.43626
 Alpha  occ. eigenvalues --  -14.43620 -14.41022 -14.41017 -10.35351 -10.31144
 Alpha  occ. eigenvalues --  -10.31138  -1.16882  -1.15839  -1.01598  -0.97979
 Alpha  occ. eigenvalues --   -0.92199  -0.90670  -0.81556  -0.71320  -0.70718
 Alpha  occ. eigenvalues --   -0.69668  -0.65383  -0.61244  -0.58924  -0.54722
 Alpha  occ. eigenvalues --   -0.53606  -0.51534  -0.50961  -0.48804  -0.40702
 Alpha  occ. eigenvalues --   -0.40631  -0.37078  -0.36196  -0.35001  -0.34929
 Alpha  occ. eigenvalues --   -0.33606  -0.33109  -0.32765  -0.32592
 Alpha virt. eigenvalues --   -0.07998  -0.06985  -0.04084  -0.03356  -0.01822
 Alpha virt. eigenvalues --    0.00096   0.00374   0.01443   0.03044   0.04180
 Alpha virt. eigenvalues --    0.05322   0.05396   0.05615   0.07496   0.07682
 Alpha virt. eigenvalues --    0.08247   0.08451   0.10314   0.10475   0.11719
 Alpha virt. eigenvalues --    0.12870   0.12928   0.13922   0.14362   0.15199
 Alpha virt. eigenvalues --    0.15325   0.16421   0.16943   0.17037   0.17891
 Alpha virt. eigenvalues --    0.18567   0.18647   0.19231   0.19491   0.19958
 Alpha virt. eigenvalues --    0.20421   0.20655   0.21329   0.21375   0.22524
 Alpha virt. eigenvalues --    0.23138   0.23637   0.24501   0.24981   0.25094
 Alpha virt. eigenvalues --    0.26636   0.27252   0.28102   0.28574   0.28866
 Alpha virt. eigenvalues --    0.29275   0.31792   0.31876   0.32063   0.32835
 Alpha virt. eigenvalues --    0.33381   0.33931   0.34160   0.35797   0.37181
 Alpha virt. eigenvalues --    0.41069   0.41618   0.43337   0.44197   0.60527
 Alpha virt. eigenvalues --    0.64772   0.70226   0.72611   0.73555   0.74145
 Alpha virt. eigenvalues --    0.79046   0.79480   0.80711   0.81584   0.84159
 Alpha virt. eigenvalues --    0.84881   0.85206   0.86105   0.86525   0.87222
 Alpha virt. eigenvalues --    0.88120   0.89130   0.89343   0.89495   0.92415
 Alpha virt. eigenvalues --    0.94261   0.95153   0.95409   0.96632   0.97070
 Alpha virt. eigenvalues --    0.98725   0.99334   1.00886   1.02412   1.04980
 Alpha virt. eigenvalues --    1.05996   1.08442   1.09497   1.10600   1.15238
 Alpha virt. eigenvalues --    1.17973   1.21845   1.22586   1.25221   1.27832
 Alpha virt. eigenvalues --    1.28538   1.30733   1.31371   1.32708   1.37287
 Alpha virt. eigenvalues --    1.37834   1.42533   1.44866   1.46663   1.48483
 Alpha virt. eigenvalues --    1.49154   1.52636   1.54974   1.56285   1.57194
 Alpha virt. eigenvalues --    1.59423   1.60564   1.69725   1.72851   1.75871
 Alpha virt. eigenvalues --    1.79140   1.84405   1.85024   1.86210   1.88317
 Alpha virt. eigenvalues --    1.90594   1.95781   1.96487   2.00816   2.05904
 Alpha virt. eigenvalues --    2.05928   2.07959   2.12436   2.13003   2.18519
 Alpha virt. eigenvalues --    2.18795   2.22071   2.22370   2.24117   2.24547
 Alpha virt. eigenvalues --    2.26882   2.29587   2.30243   2.35169   2.36178
 Alpha virt. eigenvalues --    2.36661   2.38011   2.46437   2.50263   2.53915
 Alpha virt. eigenvalues --    2.56349   2.58685   2.61604   2.62277   2.63364
 Alpha virt. eigenvalues --    2.67102   2.67146   2.71767   2.71789   2.76637
 Alpha virt. eigenvalues --    2.78007   2.80543   2.81623   2.85140   2.88124
 Alpha virt. eigenvalues --    2.88797   2.93481   2.97652   3.06140   3.12757
 Alpha virt. eigenvalues --    3.27183   3.40881   3.51554   3.51884   3.88502
 Alpha virt. eigenvalues --    3.90005   4.00375   4.06135   4.11632   4.18051
 Alpha virt. eigenvalues --    4.25005   4.27836   4.46981   4.48140   4.57859
          Condensed to atoms (all electrons):
               1          2          3          4          5          6
     1  N    6.632435   0.115879   0.164231   0.092707   0.166483  -0.054971
     2  N    0.115879   6.721205   0.243952  -0.084521   0.102901   0.019765
     3  C    0.164231   0.243952   5.350355   0.197774  -0.197416  -0.162476
     4  N    0.092707  -0.084521   0.197774   7.224408  -0.197244   0.134037
     5  N    0.166483   0.102901  -0.197416  -0.197244   7.149425   0.033974
     6  C   -0.054971   0.019765  -0.162476   0.134037   0.033974   5.364186
     7  N   -0.001897   0.003276   0.031734  -0.167627  -0.045862   0.132964
     8  N   -0.004687  -0.000905  -0.011091  -0.045212   0.060505   0.033696
     9  N    0.000325   0.000833   0.011999  -0.002076  -0.004742  -0.055336
    10  N    0.000839  -0.002216  -0.001536   0.003281  -0.000831   0.020046
    11  C    0.011811  -0.001502  -0.021581   0.031285  -0.011065  -0.162416
    12  H   -0.000811  -0.021256   0.406511  -0.082334   0.007443   0.007292
    13  H    0.001997  -0.002066   0.002560  -0.033812  -0.012688   0.415732
    14  H   -0.004546   0.001025  -0.002750  -0.054675   0.022406   0.415687
    15  H    0.001307  -0.000958   0.004763   0.009772  -0.008289   0.007332
               7          8          9         10         11         12
     1  N   -0.001897  -0.004687   0.000325   0.000839   0.011811  -0.000811
     2  N    0.003276  -0.000905   0.000833  -0.002216  -0.001502  -0.021256
     3  C    0.031734  -0.011091   0.011999  -0.001536  -0.021581   0.406511
     4  N   -0.167627  -0.045212  -0.002076   0.003281   0.031285  -0.082334
     5  N   -0.045862   0.060505  -0.004742  -0.000831  -0.011065   0.007443
     6  C    0.132964   0.033696  -0.055336   0.020046  -0.162416   0.007292
     7  N    7.225698  -0.198954   0.093128  -0.085055   0.197988   0.009957
     8  N   -0.198954   7.151206   0.166710   0.103181  -0.196916  -0.008438
     9  N    0.093128   0.166710   6.632125   0.116028   0.163932   0.001345
    10  N   -0.085055   0.103181   0.116028   6.720929   0.243996  -0.000975
    11  C    0.197988  -0.196916   0.163932   0.243996   5.350126   0.004763
    12  H    0.009957  -0.008438   0.001345  -0.000975   0.004763   0.486150
    13  H   -0.054362   0.022016  -0.004515   0.001007  -0.002709   0.000007
    14  H   -0.033940  -0.012461   0.001977  -0.002057   0.002551  -0.000056
    15  H   -0.082333   0.007532  -0.000851  -0.021205   0.406429  -0.000012
              13         14         15
     1  N    0.001997  -0.004546   0.001307
     2  N   -0.002066   0.001025  -0.000958
     3  C    0.002560  -0.002750   0.004763
     4  N   -0.033812  -0.054675   0.009772
     5  N   -0.012688   0.022406  -0.008289
     6  C    0.415732   0.415687   0.007332
     7  N   -0.054362  -0.033940  -0.082333
     8  N    0.022016  -0.012461   0.007532
     9  N   -0.004515   0.001977  -0.000851
    10  N    0.001007  -0.002057  -0.021205
    11  C   -0.002709   0.002551   0.406429
    12  H    0.000007  -0.000056  -0.000012
    13  H    0.483363  -0.024980  -0.000056
    14  H   -0.024980   0.483331   0.000008
    15  H   -0.000056   0.000008   0.486238
 Mulliken charges:
               1
     1  N   -0.121102
     2  N   -0.095413
     3  C   -0.017030
     4  N   -0.025762
     5  N   -0.064999
     6  C   -0.149513
     7  N   -0.024715
     8  N   -0.066184
     9  N   -0.120882
    10  N   -0.095433
    11  C   -0.016691
    12  H    0.190415
    13  H    0.208506
    14  H    0.208480
    15  H    0.190323
 Sum of Mulliken charges =   0.00000
 Mulliken charges with hydrogens summed into heavy atoms:
               1
     1  N   -0.121102
     2  N   -0.095413
     3  C    0.173385
     4  N   -0.025762
     5  N   -0.064999
     6  C    0.267473
     7  N   -0.024715
     8  N   -0.066184
     9  N   -0.120882
    10  N   -0.095433
    11  C    0.173631
 Electronic spatial extent (au):  <R**2>=           1742.6466
 Charge=              0.0000 electrons
 Dipole moment (field-independent basis, Debye):
    X=             -0.0072    Y=              3.1772    Z=             -0.0758  Tot=              3.1781
 Quadrupole moment (field-independent basis, Debye-Ang):
   XX=            -97.3102   YY=            -62.1987   ZZ=            -62.0071
   XY=             -0.1932   XZ=             -6.8587   YZ=              0.0069
 Traceless Quadrupole moment (field-independent basis, Debye-Ang):
   XX=            -23.4715   YY=             11.6400   ZZ=             11.8315
   XY=             -0.1932   XZ=             -6.8587   YZ=              0.0069
 Octapole moment (field-independent basis, Debye-Ang**2):
  XXX=             -0.0848  YYY=             16.4068  ZZZ=              0.1908  XYY=             -0.4871
  XXY=             25.6670  XXZ=             -0.6824  XZZ=              0.4656  YZZ=             -1.4361
  YYZ=             -0.5250  XYZ=             -8.5667
 Hexadecapole moment (field-independent basis, Debye-Ang**3):
 XXXX=          -2235.1529 YYYY=           -264.7055 ZZZZ=           -252.3975 XXXY=             -1.0911
 XXXZ=            -35.6462 YYYX=              0.3528 YYYZ=             -0.1321 ZZZX=            -16.8168
 ZZZY=              0.1692 XXYY=           -393.0012 XXZZ=           -390.7634 YYZZ=            -87.9666
 XXYZ=             -0.0517 YYXZ=              4.0650 ZZXY=             -0.6735
 N-N= 5.815578505617D+02 E-N=-2.451918115602D+03  KE= 5.491477493234D+02
 Calling FoFJK, ICntrl=      2127 FMM=F ISym2X=0 I1Cent= 0 IOpClX= 0 NMat=1 NMatS=1 NMatT=0.
 ***** Axes restored to original set *****
 -------------------------------------------------------------------
 Center     Atomic                   Forces (Hartrees/Bohr)
 Number     Number              X              Y              Z
 -------------------------------------------------------------------
      1        7           0.043801840    0.015965795    0.003662319
      2        7           0.020078655   -0.015837922   -0.025560726
      3        6           0.015927090    0.006402964    0.002165815
      4        7          -0.006471133    0.000084862    0.007189996
      5        7          -0.066715874   -0.010952673    0.011810360
      6        6           0.002510193    0.002489430   -0.003482869
      7        7          -0.001778253   -0.008322114    0.004466052
      8        7           0.019830134   -0.036250962    0.054770657
      9        7          -0.016607011    0.011338406   -0.042231398
     10        7          -0.000203972    0.036032052   -0.002964737
     11        6          -0.006254422    0.003223158   -0.015662474
     12        1          -0.002193883    0.000256340    0.000398468
     13        1           0.003837368    0.000883019    0.007420754
     14        1          -0.006724515   -0.003782434   -0.003325731
     15        1           0.000963783   -0.001529922    0.001343515
 -------------------------------------------------------------------
 Cartesian Forces:  Max     0.066715874 RMS     0.019642876

 GradGradGradGradGradGradGradGradGradGradGradGradGradGradGradGradGradGrad
 Berny optimization.
 FormGI is forming the generalized inverse of G from B-inverse, IUseBI=4.
 Internal  Forces:  Max     0.058126951 RMS     0.012058070
 Search for a local minimum.
 Step number   1 out of a maximum of   82
 All quantities printed in internal units (Hartrees-Bohrs-Radians)
 Mixed Optimization -- RFO/linear search
 Second derivative matrix not updated -- first step.
 ITU=  0
     Eigenvalues ---    0.00957   0.00957   0.01463   0.01463   0.01842
     Eigenvalues ---    0.01843   0.02200   0.02200   0.02393   0.02394
     Eigenvalues ---    0.05218   0.06681   0.09997   0.13273   0.15997
     Eigenvalues ---    0.15997   0.22002   0.23592   0.23592   0.24998
     Eigenvalues ---    0.24999   0.25000   0.25000   0.34661   0.34662
     Eigenvalues ---    0.35926   0.35931   0.37529   0.37529   0.43235
     Eigenvalues ---    0.43236   0.46273   0.46278   0.49486   0.49497
     Eigenvalues ---    0.55536   0.55549   0.62807   0.62829
 RFO step:  Lambda=-2.43964120D-02 EMin= 9.57118897D-03
 Linear search not attempted -- first point.
 Iteration  1 RMS(Cart)=  0.03398636 RMS(Int)=  0.00082869
 Iteration  2 RMS(Cart)=  0.00095145 RMS(Int)=  0.00020072
 Iteration  3 RMS(Cart)=  0.00000051 RMS(Int)=  0.00020072
 Variable       Old X    -DE/DX   Delta X   Delta X   Delta X     New X
                                 (Linear)    (Quad)   (Total)
    R1        2.63221  -0.02176   0.00000  -0.04720  -0.04741   2.58480
    R2        2.61240  -0.05812   0.00000  -0.11834  -0.11847   2.49393
    R3        2.47199   0.00122   0.00000   0.00404   0.00404   2.47603
    R4        2.59557  -0.02085   0.00000  -0.03509  -0.03488   2.56069
    R5        2.04198   0.00042   0.00000   0.00108   0.00108   2.04306
    R6        2.52477   0.00530   0.00000   0.00893   0.00906   2.53382
    R7        2.75056  -0.00270   0.00000  -0.00676  -0.00676   2.74380
    R8        2.75057  -0.00276   0.00000  -0.00690  -0.00690   2.74367
    R9        2.06228  -0.00019   0.00000  -0.00050  -0.00050   2.06178
   R10        2.06227  -0.00019   0.00000  -0.00051  -0.00051   2.06176
   R11        2.52489   0.00529   0.00000   0.00892   0.00904   2.53393
   R12        2.59543  -0.02081   0.00000  -0.03500  -0.03479   2.56064
   R13        2.61228  -0.05813   0.00000  -0.11831  -0.11844   2.49384
   R14        2.63226  -0.02176   0.00000  -0.04720  -0.04741   2.58486
   R15        2.47216   0.00112   0.00000   0.00388   0.00388   2.47604
   R16        2.04190   0.00044   0.00000   0.00116   0.00116   2.04306
    A1        1.92703  -0.00317   0.00000  -0.02630  -0.02669   1.90034
    A2        1.83408   0.01187   0.00000   0.04724   0.04702   1.88110
    A3        1.92588  -0.01603   0.00000  -0.04947  -0.04926   1.87663
    A4        2.23277   0.00580   0.00000   0.01278   0.01267   2.24544
    A5        2.12437   0.01023   0.00000   0.03676   0.03665   2.16102
    A6        1.91480  -0.00608   0.00000  -0.01242  -0.01210   1.90270
    A7        2.25924   0.00192   0.00000   0.00213   0.00196   2.26120
    A8        2.10911   0.00415   0.00000   0.01025   0.01008   2.11919
    A9        1.82298   0.01341   0.00000   0.04092   0.04096   1.86394
   A10        1.95552  -0.00300   0.00000  -0.01719  -0.01729   1.93823
   A11        1.89209   0.00694   0.00000   0.04039   0.04023   1.93232
   A12        1.92248  -0.00645   0.00000  -0.04477  -0.04449   1.87799
   A13        1.92249  -0.00645   0.00000  -0.04479  -0.04450   1.87799
   A14        1.89199   0.00694   0.00000   0.04041   0.04024   1.93223
   A15        1.87781   0.00208   0.00000   0.02688   0.02752   1.90533
   A16        2.10921   0.00414   0.00000   0.01019   0.01003   2.11924
   A17        2.25918   0.00193   0.00000   0.00213   0.00196   2.26114
   A18        1.91474  -0.00607   0.00000  -0.01236  -0.01204   1.90269
   A19        1.82304   0.01338   0.00000   0.04082   0.04086   1.86390
   A20        1.92705  -0.00316   0.00000  -0.02625  -0.02663   1.90041
   A21        1.83400   0.01188   0.00000   0.04725   0.04704   1.88104
   A22        1.92594  -0.01603   0.00000  -0.04949  -0.04928   1.87666
   A23        2.12445   0.01023   0.00000   0.03677   0.03666   2.16111
   A24        2.23263   0.00581   0.00000   0.01280   0.01269   2.24531
    D1        0.00211   0.00026   0.00000   0.00593   0.00591   0.00802
    D2       -0.00285  -0.00033   0.00000  -0.00794  -0.00789  -0.01074
    D3       -0.00050  -0.00007   0.00000  -0.00148  -0.00143  -0.00193
    D4       -3.12278  -0.00028   0.00000  -0.00624  -0.00611  -3.12889
    D5       -0.00132  -0.00011   0.00000  -0.00352  -0.00339  -0.00471
    D6       -3.13312   0.00006   0.00000   0.00144   0.00152  -3.13160
    D7        3.12237   0.00006   0.00000   0.00067   0.00076   3.12312
    D8       -0.00944   0.00022   0.00000   0.00563   0.00567  -0.00377
    D9        0.00250   0.00029   0.00000   0.00697   0.00710   0.00960
   D10        3.13529   0.00013   0.00000   0.00247   0.00262   3.13791
   D11        1.03739  -0.00196   0.00000   0.00165   0.00128   1.03866
   D12       -1.08784   0.00333   0.00000   0.04135   0.04138  -1.04647
   D13       -3.13822   0.00039   0.00000   0.01057   0.01091  -3.12731
   D14       -2.09347  -0.00173   0.00000   0.00720   0.00683  -2.08664
   D15        2.06448   0.00356   0.00000   0.04690   0.04693   2.11141
   D16        0.01411   0.00062   0.00000   0.01612   0.01647   0.03057
   D17       -2.08776  -0.00173   0.00000   0.00718   0.00681  -2.08095
   D18        1.04155  -0.00196   0.00000   0.00181   0.00143   1.04299
   D19        0.01995   0.00062   0.00000   0.01607   0.01641   0.03637
   D20       -3.13392   0.00040   0.00000   0.01069   0.01103  -3.12288
   D21        2.07027   0.00356   0.00000   0.04686   0.04688   2.11716
   D22       -1.08360   0.00333   0.00000   0.04148   0.04150  -1.04209
   D23        3.13440   0.00013   0.00000   0.00234   0.00248   3.13688
   D24        0.00288   0.00028   0.00000   0.00668   0.00681   0.00969
   D25       -3.13221   0.00007   0.00000   0.00170   0.00177  -3.13044
   D26       -0.00861   0.00023   0.00000   0.00576   0.00580  -0.00282
   D27       -0.00181  -0.00008   0.00000  -0.00309  -0.00297  -0.00478
   D28        3.12178   0.00007   0.00000   0.00097   0.00106   3.12284
   D29       -0.00301  -0.00032   0.00000  -0.00786  -0.00780  -0.01081
   D30        0.00197   0.00027   0.00000   0.00609   0.00608   0.00805
   D31       -0.00013  -0.00008   0.00000  -0.00182  -0.00178  -0.00191
   D32       -3.12231  -0.00029   0.00000  -0.00644  -0.00632  -3.12864
         Item               Value     Threshold  Converged?
 Maximum Force            0.058127     0.000450     NO 
 RMS     Force            0.012058     0.000300     NO 
 Maximum Displacement     0.104309     0.001800     NO 
 RMS     Displacement     0.034163     0.001200     NO 
 Predicted change in Energy=-1.304788D-02
 GradGradGradGradGradGradGradGradGradGradGradGradGradGradGradGradGradGrad

                          Input orientation:                          
 ---------------------------------------------------------------------
 Center     Atomic      Atomic             Coordinates (Angstroms)
 Number     Number       Type             X           Y           Z
 ---------------------------------------------------------------------
      1          7           0       -2.407943   -1.048505   -1.769581
      2          7           0       -2.889072   -0.324609   -0.713447
      3          6           0       -1.893614    0.366864   -0.215745
      4          7           0       -0.790984    0.080793   -0.949605
      5          7           0       -1.118449   -0.801990   -1.904233
      6          6           0        0.568086    0.571231   -0.806169
      7          7           0        1.107694    0.238009    0.499882
      8          7           0        1.498626    1.190781    1.358603
      9          7           0        1.929515    0.573625    2.442583
     10          7           0        1.794585   -0.776147    2.266750
     11          6           0        1.291711   -0.975794    1.073413
     12          1           0       -1.895760    1.041468    0.629104
     13          1           0        0.599388    1.656987   -0.908840
     14          1           0        1.167266    0.119121   -1.597968
     15          1           0        1.038901   -1.911886    0.595204
 ---------------------------------------------------------------------
                    Distance matrix (angstroms):
                    1          2          3          4          5
     1  N    0.000000
     2  N    1.367819   0.000000
     3  C    2.163842   1.310259   0.000000
     4  N    2.135938   2.149906   1.355057   0.000000
     5  N    1.319733   2.186543   2.195016   1.340841   0.000000
     6  C    3.522564   3.572544   2.539752   1.451956   2.436367
     7  N    4.377818   4.214600   3.088135   2.393890   3.437599
     8  N    5.482811   5.083473   3.829452   3.435435   4.633176
     9  N    6.259966   5.829763   4.661092   4.376178   5.484270
    10  N    5.833300   5.569750   4.590433   4.214790   5.087587
    11  C    4.666405   4.593022   3.689302   3.089756   3.834769
    12  H    3.222423   2.157610   1.081140   2.153078   3.228056
    13  H    4.135771   4.016746   2.891342   2.102185   3.160433
    14  H    3.764960   4.175303   3.367626   2.063150   2.483292
    15  H    4.268299   4.434072   3.801314   3.115395   3.483277
                    6          7          8          9         10
     6  C    0.000000
     7  N    1.451889   0.000000
     8  N    2.436388   1.340897   0.000000
     9  N    3.522482   2.135911   1.319681   0.000000
    10  N    3.572473   2.149920   2.186579   1.367848   0.000000
    11  C    2.539635   1.355034   2.195038   2.163820   1.310265
    12  H    2.889925   3.111749   3.475100   4.259144   4.427670
    13  H    1.091048   2.063097   2.483400   3.764963   4.175286
    14  H    1.091039   2.102060   3.162210   4.136865   4.016352
    15  H    2.889876   2.153106   3.228106   3.222385   2.157551
                   11         12         13         14         15
    11  C    0.000000
    12  H    3.798253   0.000000
    13  H    3.367517   2.994978   0.000000
    14  H    2.889741   3.897781   1.778318   0.000000
    15  H    1.081140   4.163614   3.897714   2.991901   0.000000
 Stoichiometry    C3H4N8
 Framework group  C1[X(C3H4N8)]
 Deg. of freedom    39
 Full point group                 C1      NOp   1
 Largest Abelian subgroup         C1      NOp   1
 Largest concise Abelian subgroup C1      NOp   1
                         Standard orientation:                         
 ---------------------------------------------------------------------
 Center     Atomic      Atomic             Coordinates (Angstroms)
 Number     Number       Type             X           Y           Z
 ---------------------------------------------------------------------
      1          7           0        3.089293   -0.317025    0.520288
      2          7           0        2.707465   -0.984918   -0.610666
      3          6           0        1.545773   -0.507694   -0.984173
      4          7           0        1.194320    0.452710   -0.095193
      5          7           0        2.153038    0.557765    0.836300
      6          6           0        0.000232    1.277438   -0.048789
      7          7           0       -1.194480    0.459719    0.060674
      8          7           0       -2.150219    0.488986   -0.879386
      9          7           0       -3.087350   -0.357784   -0.496862
     10          7           0       -2.709118   -0.932280    0.685468
     11          6           0       -1.548675   -0.426069    1.022985
     12          1           0        0.934617   -0.800600   -1.826526
     13          1           0       -0.091297    1.875394   -0.956785
     14          1           0        0.092232    1.943104    0.810740
     15          1           0       -0.940170   -0.650153    1.888070
 ---------------------------------------------------------------------
 Rotational constants (GHZ):      3.4075888      0.6529568      0.6503142
 Standard basis: 6-31+G(d,p) (6D, 7F)
 There are   229 symmetry adapted cartesian basis functions of A   symmetry.
 There are   229 symmetry adapted basis functions of A   symmetry.
   229 basis functions,   380 primitive gaussians,   229 cartesian basis functions
    39 alpha electrons       39 beta electrons
       nuclear repulsion energy       587.7333407559 Hartrees.
 NAtoms=   15 NActive=   15 NUniq=   15 SFac= 1.00D+00 NAtFMM=   60 NAOKFM=F Big=F
 Integral buffers will be    131072 words long.
 Raffenetti 2 integral format.
 Two-electron integral symmetry is turned on.
 Nuclear repulsion after empirical dispersion term =      587.7236036169 Hartrees.
 One-electron integrals computed using PRISM.
 NBasis=   229 RedAO= T EigKep=  3.60D-05  NBF=   229
 NBsUse=   229 1.00D-06 EigRej= -1.00D+00 NBFU=   229
 Initial guess from the checkpoint file:  "Klapotke02_TZ01_1.chk"
 B after Tr=     0.000000    0.000000    0.000000
         Rot=    0.999979    0.005991   -0.002506    0.000081 Ang=   0.74 deg.
 ExpMin= 4.38D-02 ExpMax= 4.17D+03 ExpMxC= 6.27D+02 IAcc=2 IRadAn=         4 AccDes= 0.00D+00
 Harris functional with IExCor=  402 and IRadAn=       4 diagonalized for initial guess.
 HarFok:  IExCor=  402 AccDes= 0.00D+00 IRadAn=         4 IDoV= 1 UseB2=F ITyADJ=14
 ICtDFT=  3500011 ScaDFX=  1.000000  1.000000  1.000000  1.000000
 FoFCou: FMM=F IPFlag=           0 FMFlag=      100000 FMFlg1=           0
         NFxFlg=           0 DoJE=T BraDBF=F KetDBF=T FulRan=T
         wScrn=  0.000000 ICntrl=     500 IOpCl=  0 I1Cent=   200000004 NGrid=           0
         NMat0=    1 NMatS0=      1 NMatT0=    0 NMatD0=    1 NMtDS0=    0 NMtDT0=    0
 Petite list used in FoFCou.
 Keep R1 ints in memory in canonical form, NReq=353042986.
 Requested convergence on RMS density matrix=1.00D-08 within 128 cycles.
 Requested convergence on MAX density matrix=1.00D-06.
 Requested convergence on             energy=1.00D-06.
 No special actions if energy rises.
 SCF Done:  E(RB3LYP) =  -554.646180464     A.U. after   12 cycles
            NFock= 12  Conv=0.47D-08     -V/T= 2.0093
 Calling FoFJK, ICntrl=      2127 FMM=F ISym2X=0 I1Cent= 0 IOpClX= 0 NMat=1 NMatS=1 NMatT=0.
 ***** Axes restored to original set *****
 -------------------------------------------------------------------
 Center     Atomic                   Forces (Hartrees/Bohr)
 Number     Number              X              Y              Z
 -------------------------------------------------------------------
      1        7           0.026546763    0.015572468    0.011260142
      2        7          -0.014370561   -0.005022203   -0.001701032
      3        6           0.003876961   -0.002061699   -0.004789506
      4        7           0.003481656    0.004830562    0.004590405
      5        7          -0.017655224   -0.010998536   -0.007137546
      6        6           0.001660295    0.001663039   -0.002333442
      7        7          -0.002558658   -0.003902537   -0.005922156
      8        7           0.008360134    0.001686629    0.020245802
      9        7          -0.013426952   -0.002464185   -0.029747321
     10        7           0.005904278   -0.003468364    0.013666694
     11        6           0.000365509    0.006357376   -0.001219990
     12        1          -0.002248976   -0.000853938   -0.000666810
     13        1           0.000073044    0.000244570    0.001794886
     14        1          -0.001186557   -0.001357558   -0.000226997
     15        1           0.001178288   -0.000225625    0.002186869
 -------------------------------------------------------------------
 Cartesian Forces:  Max     0.029747321 RMS     0.009198397

 GradGradGradGradGradGradGradGradGradGradGradGradGradGradGradGradGradGrad
 Berny optimization.
 Using GEDIIS/GDIIS optimizer.
 FormGI is forming the generalized inverse of G from B-inverse, IUseBI=4.
 Internal  Forces:  Max     0.019032631 RMS     0.005042769
 Search for a local minimum.
 Step number   2 out of a maximum of   82
 All quantities printed in internal units (Hartrees-Bohrs-Radians)
 Mixed Optimization -- RFO/linear search
 Update second derivatives using D2CorX and points    1    2
 DE= -1.40D-02 DEPred=-1.30D-02 R= 1.07D+00
 TightC=F SS=  1.41D+00  RLast= 2.65D-01 DXNew= 5.0454D-01 7.9533D-01
 Trust test= 1.07D+00 RLast= 2.65D-01 DXMaxT set to 5.05D-01
 ITU=  1  0
 Use linear search instead of GDIIS.
     Eigenvalues ---    0.00953   0.00957   0.01461   0.01462   0.01844
     Eigenvalues ---    0.01846   0.02205   0.02205   0.02386   0.02387
     Eigenvalues ---    0.05398   0.06726   0.09793   0.12959   0.15797
     Eigenvalues ---    0.15998   0.22037   0.23615   0.24139   0.24861
     Eigenvalues ---    0.24997   0.24999   0.26854   0.34661   0.34662
     Eigenvalues ---    0.35818   0.35928   0.37473   0.37529   0.37797
     Eigenvalues ---    0.43294   0.45071   0.46136   0.49468   0.53220
     Eigenvalues ---    0.55213   0.55369   0.62813   0.62901
 RFO step:  Lambda=-6.73653810D-03 EMin= 9.53341280D-03
 Quartic linear search produced a step of  0.09859.
 Iteration  1 RMS(Cart)=  0.03498024 RMS(Int)=  0.00080864
 Iteration  2 RMS(Cart)=  0.00074154 RMS(Int)=  0.00017684
 Iteration  3 RMS(Cart)=  0.00000034 RMS(Int)=  0.00017684
 Variable       Old X    -DE/DX   Delta X   Delta X   Delta X     New X
                                 (Linear)    (Quad)   (Total)
    R1        2.58480  -0.00552  -0.00467  -0.02207  -0.02648   2.55832
    R2        2.49393  -0.01903  -0.01168  -0.06365  -0.07517   2.41876
    R3        2.47603   0.00201   0.00040   0.00484   0.00524   2.48127
    R4        2.56069   0.00294  -0.00344   0.00266  -0.00103   2.55966
    R5        2.04306  -0.00105   0.00011  -0.00296  -0.00286   2.04020
    R6        2.53382   0.00281   0.00089   0.00701   0.00774   2.54156
    R7        2.74380  -0.00030  -0.00067  -0.00195  -0.00261   2.74119
    R8        2.74367  -0.00031  -0.00068  -0.00199  -0.00267   2.74100
    R9        2.06178   0.00008  -0.00005   0.00016   0.00011   2.06189
   R10        2.06176   0.00008  -0.00005   0.00015   0.00010   2.06187
   R11        2.53393   0.00280   0.00089   0.00699   0.00772   2.54165
   R12        2.56064   0.00295  -0.00343   0.00270  -0.00098   2.55966
   R13        2.49384  -0.01902  -0.01168  -0.06360  -0.07512   2.41872
   R14        2.58486  -0.00552  -0.00467  -0.02206  -0.02648   2.55838
   R15        2.47604   0.00200   0.00038   0.00479   0.00518   2.48122
   R16        2.04306  -0.00105   0.00011  -0.00294  -0.00283   2.04023
    A1        1.90034   0.01670  -0.00263   0.05867   0.05645   1.95680
    A2        1.88110  -0.01185   0.00464  -0.04392  -0.03904   1.84207
    A3        1.87663   0.00307  -0.00486   0.01438   0.00924   1.88587
    A4        2.24544  -0.00384   0.00125  -0.02381  -0.02242   2.22301
    A5        2.16102   0.00077   0.00361   0.00949   0.01324   2.17426
    A6        1.90270  -0.00291  -0.00119  -0.00973  -0.01134   1.89135
    A7        2.26120   0.00420   0.00019   0.01592   0.01633   2.27753
    A8        2.11919  -0.00128   0.00099  -0.00620  -0.00499   2.11420
    A9        1.86394  -0.00500   0.00404  -0.01921  -0.01527   1.84867
   A10        1.93823   0.00018  -0.00170  -0.00337  -0.00511   1.93312
   A11        1.93232   0.00018   0.00397   0.00584   0.00975   1.94207
   A12        1.87799  -0.00075  -0.00439  -0.01146  -0.01580   1.86219
   A13        1.87799  -0.00075  -0.00439  -0.01145  -0.01580   1.86219
   A14        1.93223   0.00018   0.00397   0.00592   0.00984   1.94207
   A15        1.90533   0.00100   0.00271   0.01524   0.01807   1.92339
   A16        2.11924  -0.00129   0.00099  -0.00622  -0.00502   2.11421
   A17        2.26114   0.00422   0.00019   0.01601   0.01641   2.27755
   A18        1.90269  -0.00293  -0.00119  -0.00979  -0.01140   1.89129
   A19        1.86390  -0.00498   0.00403  -0.01912  -0.01519   1.84871
   A20        1.90041   0.01667  -0.00263   0.05857   0.05635   1.95677
   A21        1.88104  -0.01184   0.00464  -0.04385  -0.03896   1.84208
   A22        1.87666   0.00308  -0.00486   0.01439   0.00925   1.88591
   A23        2.16111   0.00076   0.00361   0.00947   0.01322   2.17433
   A24        2.24531  -0.00384   0.00125  -0.02379  -0.02241   2.22291
    D1        0.00802  -0.00028   0.00058  -0.01435  -0.01392  -0.00591
    D2       -0.01074   0.00031  -0.00078   0.01657   0.01607   0.00534
    D3       -0.00193   0.00018  -0.00014   0.00626   0.00581   0.00388
    D4       -3.12889   0.00001  -0.00060   0.00122   0.00052  -3.12837
    D5       -0.00471   0.00010  -0.00033   0.00421   0.00385  -0.00086
    D6       -3.13160   0.00014   0.00015   0.00473   0.00491  -3.12669
    D7        3.12312   0.00020   0.00007   0.00860   0.00859   3.13172
    D8       -0.00377   0.00024   0.00056   0.00911   0.00965   0.00588
    D9        0.00960  -0.00032   0.00070  -0.01321  -0.01232  -0.00272
   D10        3.13791  -0.00030   0.00026  -0.01345  -0.01304   3.12487
   D11        1.03866   0.00044   0.00013   0.03260   0.03261   1.07128
   D12       -1.04647   0.00115   0.00408   0.04534   0.04939  -0.99708
   D13       -3.12731   0.00029   0.00108   0.03048   0.03159  -3.09571
   D14       -2.08664   0.00049   0.00067   0.03317   0.03380  -2.05284
   D15        2.11141   0.00120   0.00463   0.04590   0.05057   2.16199
   D16        0.03057   0.00034   0.00162   0.03104   0.03278   0.06335
   D17       -2.08095   0.00050   0.00067   0.03330   0.03393  -2.04702
   D18        1.04299   0.00044   0.00014   0.03269   0.03271   1.07570
   D19        0.03637   0.00034   0.00162   0.03108   0.03281   0.06918
   D20       -3.12288   0.00029   0.00109   0.03047   0.03159  -3.09129
   D21        2.11716   0.00120   0.00462   0.04599   0.05066   2.16781
   D22       -1.04209   0.00115   0.00409   0.04538   0.04944  -0.99265
   D23        3.13688  -0.00030   0.00024  -0.01336  -0.01296   3.12392
   D24        0.00969  -0.00032   0.00067  -0.01310  -0.01224  -0.00255
   D25       -3.13044   0.00014   0.00017   0.00451   0.00472  -3.12571
   D26       -0.00282   0.00025   0.00057   0.00931   0.00986   0.00705
   D27       -0.00478   0.00009  -0.00029   0.00395   0.00364  -0.00114
   D28        3.12284   0.00021   0.00010   0.00875   0.00878   3.13162
   D29       -0.01081   0.00031  -0.00077   0.01664   0.01615   0.00534
   D30        0.00805  -0.00028   0.00060  -0.01458  -0.01414  -0.00609
   D31       -0.00191   0.00018  -0.00018   0.00655   0.00607   0.00416
   D32       -3.12864   0.00001  -0.00062   0.00107   0.00035  -3.12828
         Item               Value     Threshold  Converged?
 Maximum Force            0.019033     0.000450     NO 
 RMS     Force            0.005043     0.000300     NO 
 Maximum Displacement     0.136274     0.001800     NO 
 RMS     Displacement     0.034823     0.001200     NO 
 Predicted change in Energy=-3.757052D-03
 GradGradGradGradGradGradGradGradGradGradGradGradGradGradGradGradGradGrad

                          Input orientation:                          
 ---------------------------------------------------------------------
 Center     Atomic      Atomic             Coordinates (Angstroms)
 Number     Number       Type             X           Y           Z
 ---------------------------------------------------------------------
      1          7           0       -2.371679   -1.043972   -1.725418
      2          7           0       -2.903235   -0.311791   -0.718369
      3          6           0       -1.907599    0.392639   -0.232014
      4          7           0       -0.793910    0.090733   -0.941417
      5          7           0       -1.121175   -0.817501   -1.877825
      6          6           0        0.568090    0.571183   -0.806182
      7          7           0        1.108319    0.225750    0.494858
      8          7           0        1.473401    1.178237    1.371477
      9          7           0        1.882323    0.558069    2.413779
     10          7           0        1.811662   -0.786000    2.267641
     11          6           0        1.323083   -0.983961    1.065107
     12          1           0       -1.938964    1.089436    0.592055
     13          1           0        0.614108    1.658385   -0.886100
     14          1           0        1.144512    0.109593   -1.609398
     15          1           0        1.111014   -1.930849    0.591757
 ---------------------------------------------------------------------
                    Distance matrix (angstroms):
                    1          2          3          4          5
     1  N    0.000000
     2  N    1.353805   0.000000
     3  C    2.123552   1.313032   0.000000
     4  N    2.095606   2.158941   1.354512   0.000000
     5  N    1.279952   2.185365   2.188972   1.344935   0.000000
     6  C    3.477925   3.582939   2.547662   1.450574   2.435257
     7  N    4.318819   4.225332   3.106759   2.387382   3.418865
     8  N    5.414204   5.073714   3.823546   3.416554   4.612239
     9  N    6.147847   5.785203   4.625051   4.317172   5.415816
    10  N    5.788904   5.601016   4.633613   4.225603   5.078131
    11  C    4.630539   4.636201   3.743642   3.108499   3.829224
    12  H    3.179520   2.147200   1.079629   2.158725   3.225755
    13  H    4.113649   4.035025   2.896368   2.107868   3.181939
    14  H    3.702400   4.166023   3.360458   2.050374   2.462700
    15  H    4.276097   4.522386   3.897336   3.172720   3.510135
                    6          7          8          9         10
     6  C    0.000000
     7  N    1.450475   0.000000
     8  N    2.435220   1.344982   0.000000
     9  N    3.477863   2.095657   1.279930   0.000000
    10  N    3.582848   2.158955   2.185350   1.353836   0.000000
    11  C    2.547589   1.354514   2.188963   2.123564   1.313006
    12  H    2.917014   3.168806   3.501374   4.266529   4.515755
    13  H    1.091106   2.050301   2.462840   3.702468   4.165961
    14  H    1.091093   2.107771   3.183675   4.114785   4.034676
    15  H    2.917047   2.158776   3.225787   3.179528   2.147131
                   11         12         13         14         15
    11  C    0.000000
    12  H    3.894060   0.000000
    13  H    3.360335   3.004467   0.000000
    14  H    2.894949   3.913350   1.789761   0.000000
    15  H    1.079643   4.292376   3.913257   3.001602   0.000000
 Stoichiometry    C3H4N8
 Framework group  C1[X(C3H4N8)]
 Deg. of freedom    39
 Full point group                 C1      NOp   1
 Largest Abelian subgroup         C1      NOp   1
 Largest concise Abelian subgroup C1      NOp   1
                         Standard orientation:                         
 ---------------------------------------------------------------------
 Center     Atomic      Atomic             Coordinates (Angstroms)
 Number     Number       Type             X           Y           Z
 ---------------------------------------------------------------------
      1          7           0        3.029129    0.472962    0.415728
      2          7           0        2.724896   -0.771669    0.852904
      3          6           0        1.571452   -1.066875    0.299304
      4          7           0        1.190857   -0.014822   -0.464265
      5          7           0        2.133703    0.939723   -0.370798
      6          6           0        0.000224    0.183233   -1.268834
      7          7           0       -1.190996    0.146040   -0.442100
      8          7           0       -2.130690   -0.799915   -0.618509
      9          7           0       -3.027121   -0.573760    0.266638
     10          7           0       -2.726667    0.500843    1.033337
     11          6           0       -1.574477    0.942286    0.584371
     12          1           0        0.999889   -1.974795    0.420117
     13          1           0       -0.110236   -0.606579   -2.013487
     14          1           0        0.111191    1.151235   -1.759898
     15          1           0       -1.005825    1.782455    0.953670
 ---------------------------------------------------------------------
 Rotational constants (GHZ):      3.3894635      0.6582827      0.6579180
 Standard basis: 6-31+G(d,p) (6D, 7F)
 There are   229 symmetry adapted cartesian basis functions of A   symmetry.
 There are   229 symmetry adapted basis functions of A   symmetry.
   229 basis functions,   380 primitive gaussians,   229 cartesian basis functions
    39 alpha electrons       39 beta electrons
       nuclear repulsion energy       590.4221194415 Hartrees.
 NAtoms=   15 NActive=   15 NUniq=   15 SFac= 1.00D+00 NAtFMM=   60 NAOKFM=F Big=F
 Integral buffers will be    131072 words long.
 Raffenetti 2 integral format.
 Two-electron integral symmetry is turned on.
 Nuclear repulsion after empirical dispersion term =      590.4125131610 Hartrees.
 One-electron integrals computed using PRISM.
 NBasis=   229 RedAO= T EigKep=  3.46D-05  NBF=   229
 NBsUse=   229 1.00D-06 EigRej= -1.00D+00 NBFU=   229
 Initial guess from the checkpoint file:  "Klapotke02_TZ01_1.chk"
 B after Tr=     0.000000    0.000000    0.000000
         Rot=    0.768292    0.640090    0.002571   -0.002316 Ang=  79.60 deg.
 ExpMin= 4.38D-02 ExpMax= 4.17D+03 ExpMxC= 6.27D+02 IAcc=2 IRadAn=         4 AccDes= 0.00D+00
 Harris functional with IExCor=  402 and IRadAn=       4 diagonalized for initial guess.
 HarFok:  IExCor=  402 AccDes= 0.00D+00 IRadAn=         4 IDoV= 1 UseB2=F ITyADJ=14
 ICtDFT=  3500011 ScaDFX=  1.000000  1.000000  1.000000  1.000000
 FoFCou: FMM=F IPFlag=           0 FMFlag=      100000 FMFlg1=           0
         NFxFlg=           0 DoJE=T BraDBF=F KetDBF=T FulRan=T
         wScrn=  0.000000 ICntrl=     500 IOpCl=  0 I1Cent=   200000004 NGrid=           0
         NMat0=    1 NMatS0=      1 NMatT0=    0 NMatD0=    1 NMtDS0=    0 NMtDT0=    0
 Petite list used in FoFCou.
 Keep R1 ints in memory in canonical form, NReq=353042986.
 Requested convergence on RMS density matrix=1.00D-08 within 128 cycles.
 Requested convergence on MAX density matrix=1.00D-06.
 Requested convergence on             energy=1.00D-06.
 No special actions if energy rises.
 SCF Done:  E(RB3LYP) =  -554.648251285     A.U. after   12 cycles
            NFock= 12  Conv=0.55D-08     -V/T= 2.0088
 Calling FoFJK, ICntrl=      2127 FMM=F ISym2X=0 I1Cent= 0 IOpClX= 0 NMat=1 NMatS=1 NMatT=0.
 ***** Axes restored to original set *****
 -------------------------------------------------------------------
 Center     Atomic                   Forces (Hartrees/Bohr)
 Number     Number              X              Y              Z
 -------------------------------------------------------------------
      1        7          -0.013772973   -0.011054012   -0.010597776
      2        7          -0.002580441    0.001670919    0.004496014
      3        6           0.003228710    0.002430426    0.000504957
      4        7           0.005468474    0.012121219    0.008107397
      5        7           0.006252524   -0.003849832   -0.002853429
      6        6          -0.000257184   -0.000243856    0.000359680
      7        7          -0.002351533   -0.009028979   -0.012451141
      8        7          -0.003088254    0.007053742   -0.001689110
      9        7           0.008820882    0.006131413    0.017547659
     10        7          -0.001031221   -0.005317122    0.000654300
     11        6          -0.000739872    0.000030998   -0.004009051
     12        1          -0.000033096    0.000149128   -0.000029963
     13        1          -0.000321190    0.000014079   -0.000172576
     14        1           0.000287927   -0.000048044    0.000215116
     15        1           0.000117247   -0.000060079   -0.000082077
 -------------------------------------------------------------------
 Cartesian Forces:  Max     0.017547659 RMS     0.005868123

 GradGradGradGradGradGradGradGradGradGradGradGradGradGradGradGradGradGrad
 Berny optimization.
 Using GEDIIS/GDIIS optimizer.
 FormGI is forming the generalized inverse of G from B-inverse, IUseBI=4.
 Internal  Forces:  Max     0.012038775 RMS     0.003886250
 Search for a local minimum.
 Step number   3 out of a maximum of   82
 All quantities printed in internal units (Hartrees-Bohrs-Radians)
 Mixed Optimization -- RFO/linear search
 Update second derivatives using D2CorX and points    1    2    3
 DE= -2.07D-03 DEPred=-3.76D-03 R= 5.51D-01
 TightC=F SS=  1.41D+00  RLast= 2.16D-01 DXNew= 8.4853D-01 6.4905D-01
 Trust test= 5.51D-01 RLast= 2.16D-01 DXMaxT set to 6.49D-01
 ITU=  1  1  0
 Use linear search instead of GDIIS.
     Eigenvalues ---    0.00925   0.00957   0.01459   0.01461   0.01828
     Eigenvalues ---    0.01850   0.02200   0.02201   0.02372   0.02373
     Eigenvalues ---    0.05476   0.06789   0.09710   0.13247   0.15661
     Eigenvalues ---    0.15999   0.21987   0.22865   0.23621   0.24790
     Eigenvalues ---    0.24997   0.25000   0.34660   0.34662   0.35319
     Eigenvalues ---    0.35928   0.36274   0.37529   0.37564   0.38058
     Eigenvalues ---    0.43086   0.45046   0.46229   0.49482   0.52227
     Eigenvalues ---    0.55320   0.58125   0.62805   0.71831
 RFO step:  Lambda=-1.35031870D-03 EMin= 9.25039754D-03
 Quartic linear search produced a step of -0.29501.
 Iteration  1 RMS(Cart)=  0.05057974 RMS(Int)=  0.00114772
 Iteration  2 RMS(Cart)=  0.00141058 RMS(Int)=  0.00005505
 Iteration  3 RMS(Cart)=  0.00000121 RMS(Int)=  0.00005505
 Iteration  4 RMS(Cart)=  0.00000000 RMS(Int)=  0.00005505
 Variable       Old X    -DE/DX   Delta X   Delta X   Delta X     New X
                                 (Linear)    (Quad)   (Total)
    R1        2.55832   0.00777   0.00781   0.00338   0.01112   2.56944
    R2        2.41876   0.01204   0.02218  -0.00611   0.01602   2.43477
    R3        2.48127   0.00672  -0.00155   0.00834   0.00680   2.48807
    R4        2.55966  -0.00042   0.00030  -0.00046  -0.00008   2.55958
    R5        2.04020   0.00007   0.00084  -0.00094  -0.00010   2.04011
    R6        2.54156   0.01178  -0.00228   0.01645   0.01421   2.55577
    R7        2.74119   0.00090   0.00077   0.00086   0.00163   2.74282
    R8        2.74100   0.00090   0.00079   0.00085   0.00164   2.74264
    R9        2.06189   0.00001  -0.00003   0.00008   0.00005   2.06194
   R10        2.06187   0.00001  -0.00003   0.00008   0.00005   2.06192
   R11        2.54165   0.01176  -0.00228   0.01642   0.01419   2.55584
   R12        2.55966  -0.00041   0.00029  -0.00042  -0.00006   2.55960
   R13        2.41872   0.01204   0.02216  -0.00610   0.01601   2.43473
   R14        2.55838   0.00777   0.00781   0.00338   0.01112   2.56950
   R15        2.48122   0.00673  -0.00153   0.00833   0.00681   2.48803
   R16        2.04023   0.00007   0.00083  -0.00095  -0.00011   2.04012
    A1        1.95680  -0.00898  -0.01665  -0.00016  -0.01701   1.93979
    A2        1.84207   0.00494   0.01152  -0.00367   0.00772   1.84979
    A3        1.88587   0.00207  -0.00273   0.00830   0.00562   1.89149
    A4        2.22301  -0.00104   0.00662  -0.01077  -0.00417   2.21884
    A5        2.17426  -0.00103  -0.00391   0.00246  -0.00147   2.17279
    A6        1.89135  -0.00267   0.00335  -0.01226  -0.00885   1.88250
    A7        2.27753   0.00198  -0.00482   0.01188   0.00699   2.28451
    A8        2.11420   0.00068   0.00147   0.00020   0.00161   2.11581
    A9        1.84867   0.00464   0.00450   0.00791   0.01237   1.86105
   A10        1.93312   0.00223   0.00151   0.00537   0.00689   1.94002
   A11        1.94207  -0.00152  -0.00288  -0.00342  -0.00629   1.93578
   A12        1.86219   0.00026   0.00466  -0.00265   0.00201   1.86420
   A13        1.86219   0.00027   0.00466  -0.00262   0.00204   1.86424
   A14        1.94207  -0.00152  -0.00290  -0.00339  -0.00628   1.93578
   A15        1.92339   0.00024  -0.00533   0.00680   0.00146   1.92485
   A16        2.11421   0.00068   0.00148   0.00016   0.00158   2.11579
   A17        2.27755   0.00198  -0.00484   0.01191   0.00700   2.28455
   A18        1.89129  -0.00266   0.00336  -0.01227  -0.00885   1.88245
   A19        1.84871   0.00463   0.00448   0.00791   0.01235   1.86106
   A20        1.95677  -0.00896  -0.01663  -0.00015  -0.01697   1.93980
   A21        1.84208   0.00493   0.01149  -0.00368   0.00769   1.84976
   A22        1.88591   0.00207  -0.00273   0.00831   0.00563   1.89154
   A23        2.17433  -0.00104  -0.00390   0.00244  -0.00149   2.17284
   A24        2.22291  -0.00103   0.00661  -0.01075  -0.00417   2.21874
    D1       -0.00591   0.00072   0.00411   0.01726   0.02129   0.01538
    D2        0.00534  -0.00075  -0.00474  -0.01840  -0.02315  -0.01781
    D3        0.00388  -0.00034  -0.00172  -0.00848  -0.01022  -0.00634
    D4       -3.12837  -0.00026  -0.00015  -0.00751  -0.00767  -3.13604
    D5       -0.00086  -0.00006  -0.00114  -0.00216  -0.00324  -0.00410
    D6       -3.12669   0.00019  -0.00145   0.01176   0.01035  -3.11634
    D7        3.13172  -0.00014  -0.00253  -0.00319  -0.00572   3.12599
    D8        0.00588   0.00011  -0.00285   0.01073   0.00787   0.01375
    D9       -0.00272   0.00048   0.00363   0.01248   0.01612   0.01340
   D10        3.12487   0.00027   0.00385   0.00025   0.00418   3.12905
   D11        1.07128   0.00084  -0.00962   0.06443   0.05480   1.12607
   D12       -0.99708   0.00003  -0.01457   0.06642   0.05184  -0.94524
   D13       -3.09571   0.00045  -0.00932   0.06177   0.05242  -3.04329
   D14       -2.05284   0.00114  -0.00997   0.07995   0.06999  -1.98285
   D15        2.16199   0.00033  -0.01492   0.08194   0.06704   2.22902
   D16        0.06335   0.00075  -0.00967   0.07728   0.06762   0.13097
   D17       -2.04702   0.00114  -0.01001   0.07999   0.07000  -1.97702
   D18        1.07570   0.00084  -0.00965   0.06452   0.05486   1.13056
   D19        0.06918   0.00075  -0.00968   0.07731   0.06764   0.13682
   D20       -3.09129   0.00045  -0.00932   0.06184   0.05250  -3.03879
   D21        2.16781   0.00034  -0.01495   0.08200   0.06708   2.23489
   D22       -0.99265   0.00003  -0.01459   0.06653   0.05193  -0.94072
   D23        3.12392   0.00027   0.00382   0.00024   0.00415   3.12807
   D24       -0.00255   0.00048   0.00361   0.01242   0.01604   0.01349
   D25       -3.12571   0.00020  -0.00139   0.01192   0.01057  -3.11515
   D26        0.00705   0.00011  -0.00291   0.01086   0.00793   0.01498
   D27       -0.00114  -0.00005  -0.00107  -0.00196  -0.00297  -0.00412
   D28        3.13162  -0.00014  -0.00259  -0.00302  -0.00561   3.12601
   D29        0.00534  -0.00076  -0.00477  -0.01850  -0.02327  -0.01793
   D30       -0.00609   0.00073   0.00417   0.01749   0.02158   0.01549
   D31        0.00416  -0.00036  -0.00179  -0.00874  -0.01054  -0.00639
   D32       -3.12828  -0.00027  -0.00010  -0.00772  -0.00784  -3.13613
         Item               Value     Threshold  Converged?
 Maximum Force            0.012039     0.000450     NO 
 RMS     Force            0.003886     0.000300     NO 
 Maximum Displacement     0.206236     0.001800     NO 
 RMS     Displacement     0.050647     0.001200     NO 
 Predicted change in Energy=-1.090994D-03
 GradGradGradGradGradGradGradGradGradGradGradGradGradGradGradGradGradGrad

                          Input orientation:                          
 ---------------------------------------------------------------------
 Center     Atomic      Atomic             Coordinates (Angstroms)
 Number     Number       Type             X           Y           Z
 ---------------------------------------------------------------------
      1          7           0       -2.394894   -1.070842   -1.700959
      2          7           0       -2.925295   -0.283589   -0.727479
      3          6           0       -1.928473    0.440897   -0.263820
      4          7           0       -0.803248    0.098523   -0.935562
      5          7           0       -1.129398   -0.864496   -1.827391
      6          6           0        0.563854    0.566898   -0.800176
      7          7           0        1.112814    0.213050    0.495907
      8          7           0        1.418483    1.161385    1.410491
      9          7           0        1.863246    0.542236    2.449154
     10          7           0        1.843083   -0.804571    2.263303
     11          6           0        1.380207   -0.995634    1.045643
     12          1           0       -1.970076    1.178813    0.523095
     13          1           0        0.612464    1.654212   -0.877326
     14          1           0        1.137033    0.104524   -1.605296
     15          1           0        1.220150   -1.941457    0.550366
 ---------------------------------------------------------------------
                    Distance matrix (angstroms):
                    1          2          3          4          5
     1  N    0.000000
     2  N    1.359689   0.000000
     3  C    2.137351   1.316629   0.000000
     4  N    2.118156   2.166192   1.354469   0.000000
     5  N    1.288427   2.184606   2.187996   1.352456   0.000000
     6  C    3.499685   3.592043   2.552499   1.451439   2.443596
     7  N    4.333430   4.248488   3.143013   2.394476   3.403870
     8  N    5.404239   5.052452   3.811107   3.401430   4.591270
     9  N    6.160943   5.805438   4.663436   4.331672   5.405890
    10  N    5.809192   5.652754   4.707672   4.248692   5.056976
    11  C    4.669139   4.710448   3.837405   3.144810   3.817019
    12  H    3.191838   2.148254   1.079577   2.157822   3.225932
    13  H    4.141074   4.036491   2.881819   2.104234   3.206337
    14  H    3.723593   4.174170   3.363039   2.052625   2.474880
    15  H    4.346835   4.643934   4.031418   3.234755   3.511972
                    6          7          8          9         10
     6  C    0.000000
     7  N    1.451343   0.000000
     8  N    2.443532   1.352492   0.000000
     9  N    3.499596   2.118180   1.288403   0.000000
    10  N    3.591971   2.166226   2.184618   1.359719   0.000000
    11  C    2.552446   1.354483   2.187992   2.137338   1.316608
    12  H    2.923404   3.230735   3.502871   4.336969   4.637059
    13  H    1.091132   2.052576   2.475207   3.723764   4.174157
    14  H    1.091120   2.104144   3.207981   4.142167   4.036214
    15  H    2.923445   2.157867   3.225954   3.191818   2.148187
                   11         12         13         14         15
    11  C    0.000000
    12  H    4.028111   0.000000
    13  H    3.362874   2.976020   0.000000
    14  H    2.880444   3.916411   1.790711   0.000000
    15  H    1.079583   4.462552   3.916175   2.973185   0.000000
 Stoichiometry    C3H4N8
 Framework group  C1[X(C3H4N8)]
 Deg. of freedom    39
 Full point group                 C1      NOp   1
 Largest Abelian subgroup         C1      NOp   1
 Largest concise Abelian subgroup C1      NOp   1
                         Standard orientation:                         
 ---------------------------------------------------------------------
 Center     Atomic      Atomic             Coordinates (Angstroms)
 Number     Number       Type             X           Y           Z
 ---------------------------------------------------------------------
      1          7           0        3.030596    0.550434    0.384005
      2          7           0        2.749480   -0.666066    0.922389
      3          6           0        1.609993   -1.046487    0.383539
      4          7           0        1.194173   -0.076340   -0.465282
      5          7           0        2.106869    0.921233   -0.434090
      6          6           0        0.000206    0.021513   -1.284757
      7          7           0       -1.194365    0.092184   -0.463537
      8          7           0       -2.103788   -0.908905   -0.461115
      9          7           0       -3.028499   -0.565054    0.367533
     10          7           0       -2.751190    0.636200    0.941054
     11          6           0       -1.613149    1.035856    0.413234
     12          1           0        1.071895   -1.962440    0.575808
     13          1           0       -0.107130   -0.856899   -1.923067
     14          1           0        0.108082    0.920587   -1.893502
     15          1           0       -1.078087    1.947649    0.631963
 ---------------------------------------------------------------------
 Rotational constants (GHZ):      3.3441275      0.6569636      0.6502352
 Standard basis: 6-31+G(d,p) (6D, 7F)
 There are   229 symmetry adapted cartesian basis functions of A   symmetry.
 There are   229 symmetry adapted basis functions of A   symmetry.
   229 basis functions,   380 primitive gaussians,   229 cartesian basis functions
    39 alpha electrons       39 beta electrons
       nuclear repulsion energy       588.2165747180 Hartrees.
 NAtoms=   15 NActive=   15 NUniq=   15 SFac= 1.00D+00 NAtFMM=   60 NAOKFM=F Big=F
 Integral buffers will be    131072 words long.
 Raffenetti 2 integral format.
 Two-electron integral symmetry is turned on.
 Nuclear repulsion after empirical dispersion term =      588.2070526883 Hartrees.
 One-electron integrals computed using PRISM.
 NBasis=   229 RedAO= T EigKep=  3.66D-05  NBF=   229
 NBsUse=   229 1.00D-06 EigRej= -1.00D+00 NBFU=   229
 Initial guess from the checkpoint file:  "Klapotke02_TZ01_1.chk"
 B after Tr=     0.000000    0.000000    0.000000
         Rot=    0.997989    0.063292    0.000260   -0.003340 Ang=   7.27 deg.
 ExpMin= 4.38D-02 ExpMax= 4.17D+03 ExpMxC= 6.27D+02 IAcc=2 IRadAn=         4 AccDes= 0.00D+00
 Harris functional with IExCor=  402 and IRadAn=       4 diagonalized for initial guess.
 HarFok:  IExCor=  402 AccDes= 0.00D+00 IRadAn=         4 IDoV= 1 UseB2=F ITyADJ=14
 ICtDFT=  3500011 ScaDFX=  1.000000  1.000000  1.000000  1.000000
 FoFCou: FMM=F IPFlag=           0 FMFlag=      100000 FMFlg1=           0
         NFxFlg=           0 DoJE=T BraDBF=F KetDBF=T FulRan=T
         wScrn=  0.000000 ICntrl=     500 IOpCl=  0 I1Cent=   200000004 NGrid=           0
         NMat0=    1 NMatS0=      1 NMatT0=    0 NMatD0=    1 NMtDS0=    0 NMtDT0=    0
 Petite list used in FoFCou.
 Keep R1 ints in memory in canonical form, NReq=353042986.
 Requested convergence on RMS density matrix=1.00D-08 within 128 cycles.
 Requested convergence on MAX density matrix=1.00D-06.
 Requested convergence on             energy=1.00D-06.
 No special actions if energy rises.
 SCF Done:  E(RB3LYP) =  -554.649559489     A.U. after   12 cycles
            NFock= 12  Conv=0.60D-08     -V/T= 2.0090
 Calling FoFJK, ICntrl=      2127 FMM=F ISym2X=0 I1Cent= 0 IOpClX= 0 NMat=1 NMatS=1 NMatT=0.
 ***** Axes restored to original set *****
 -------------------------------------------------------------------
 Center     Atomic                   Forces (Hartrees/Bohr)
 Number     Number              X              Y              Z
 -------------------------------------------------------------------
      1        7           0.000081157   -0.003046063   -0.000030687
      2        7          -0.001589793    0.003542309    0.001902128
      3        6           0.000393808   -0.000399710   -0.000466586
      4        7          -0.001296387    0.004770615    0.003632307
      5        7           0.002720123   -0.003047226   -0.005064701
      6        6          -0.000758113   -0.000746271    0.001067633
      7        7           0.000518258   -0.005606781   -0.002471465
      8        7           0.000656888    0.006463826    0.000246341
      9        7          -0.001569060    0.001562336    0.002111093
     10        7           0.001273345   -0.003885820   -0.001404024
     11        6          -0.000095748    0.000716475    0.000015919
     12        1          -0.000232946    0.000093367    0.000117761
     13        1          -0.000199170   -0.000169830   -0.000008045
     14        1           0.000019509   -0.000008576    0.000257162
     15        1           0.000078129   -0.000238651    0.000095163
 -------------------------------------------------------------------
 Cartesian Forces:  Max     0.006463826 RMS     0.002209561

 GradGradGradGradGradGradGradGradGradGradGradGradGradGradGradGradGradGrad
 Berny optimization.
 Using GEDIIS/GDIIS optimizer.
 FormGI is forming the generalized inverse of G from B-inverse, IUseBI=4.
[...]
 Alpha virt. eigenvalues --    1.64895   1.65049   1.66550   1.71433   1.71617
 Alpha virt. eigenvalues --    1.72447   1.73331   1.73598   1.74344   1.75817
 Alpha virt. eigenvalues --    1.76595   1.79089   1.79394   1.83966   1.85417
 Alpha virt. eigenvalues --    1.87812   1.88826   1.89657   1.93319   1.94212
 Alpha virt. eigenvalues --    1.94396   1.98249   2.01915   2.03204   2.05616
 Alpha virt. eigenvalues --    2.10179   2.12011   2.14228   2.17669   2.17866
 Alpha virt. eigenvalues --    2.20388   2.22741   2.23095   2.26411   2.28160
 Alpha virt. eigenvalues --    2.28881   2.31308   2.34095   2.35941   2.37079
 Alpha virt. eigenvalues --    2.39157   2.39843   2.41812   2.41907   2.45298
 Alpha virt. eigenvalues --    2.45919   2.47532   2.49198   2.50709   2.52659
 Alpha virt. eigenvalues --    2.55350   2.57636   2.59508   2.60416   2.62341
 Alpha virt. eigenvalues --    2.64536   2.66602   2.70291   2.71524   2.73421
 Alpha virt. eigenvalues --    2.76481   2.78551   2.85694   2.86503   2.87556
 Alpha virt. eigenvalues --    2.88408   2.88575   2.92260   2.94819   2.94909
 Alpha virt. eigenvalues --    2.99119   3.01498   3.04233   3.04387   3.06256
 Alpha virt. eigenvalues --    3.13613   3.14391   3.17533   3.18227   3.19247
 Alpha virt. eigenvalues --    3.21951   3.22124   3.23850   3.28493   3.30145
 Alpha virt. eigenvalues --    3.30986   3.33564   3.35835   3.39026   3.40856
 Alpha virt. eigenvalues --    3.42560   3.44693   3.44842   3.48088   3.50313
 Alpha virt. eigenvalues --    3.51852   3.53155   3.59643   3.60824   3.62672
 Alpha virt. eigenvalues --    3.63487   3.66753   3.67497   3.69520   3.70898
 Alpha virt. eigenvalues --    3.71095   3.72722   3.74478   3.74993   3.76044
 Alpha virt. eigenvalues --    3.79524   3.81421   3.84474   3.86690   3.87834
 Alpha virt. eigenvalues --    3.90944   3.92282   3.94730   3.95432   4.01075
 Alpha virt. eigenvalues --    4.01338   4.04960   4.06282   4.09220   4.12123
 Alpha virt. eigenvalues --    4.19848   4.21832   4.24670   4.31572   4.33254
 Alpha virt. eigenvalues --    4.34544   4.51638   4.54463   4.54875   4.54976
 Alpha virt. eigenvalues --    4.56787   4.61112   4.63077   4.64685   4.67148
 Alpha virt. eigenvalues --    4.67506   4.67789   4.69765   4.71481   4.72556
 Alpha virt. eigenvalues --    4.74268   4.74830   4.75979   4.77080   4.79784
 Alpha virt. eigenvalues --    4.80334   4.80559   4.83440   4.85734   4.86810
 Alpha virt. eigenvalues --    4.90841   4.91720   4.95426   4.99161   5.00105
 Alpha virt. eigenvalues --    5.02128   5.04631   5.06793   5.08613   5.08663
 Alpha virt. eigenvalues --    5.12184   5.14057   5.14201   5.15951   5.19961
 Alpha virt. eigenvalues --    5.20113   5.23279   5.24891   5.27394   5.27575
 Alpha virt. eigenvalues --    5.31539   5.33614   5.39246   5.39808   5.39876
 Alpha virt. eigenvalues --    5.42847   5.49015   5.50329   5.53936   5.54884
 Alpha virt. eigenvalues --    5.55357   5.59664   5.65397   5.65993   5.69721
 Alpha virt. eigenvalues --    5.75490   5.75981   5.78188   5.80352   5.80567
 Alpha virt. eigenvalues --    5.96053   5.99448   6.07447   6.14836   6.26145
 Alpha virt. eigenvalues --    6.27072   6.63995   6.64179   6.76698   6.77978
 Alpha virt. eigenvalues --    6.92801   6.95323  22.74618  22.96060  22.97053
 Alpha virt. eigenvalues --   32.12790  32.12835  32.27203  32.27265  32.35304
 Alpha virt. eigenvalues --   32.36613  32.88793  32.89026
          Condensed to atoms (all electrons):
               1          2          3          4          5          6
     1  N    6.506172   0.307171  -0.013057  -0.084869   0.396802   0.004447
     2  N    0.307171   6.690399   0.269437  -0.014826  -0.062316   0.003724
     3  C   -0.013057   0.269437   5.286606   0.070971  -0.047454  -0.031728
     4  N   -0.084869  -0.014826   0.070971   7.115138   0.109526   0.100214
     5  N    0.396802  -0.062316  -0.047454   0.109526   6.633669  -0.014007
     6  C    0.004447   0.003724  -0.031728   0.100214  -0.014007   5.187184
     7  N   -0.015000   0.005242   0.021150  -0.178344   0.034583   0.099973
     8  N   -0.001643  -0.001261  -0.009023   0.034430   0.000746  -0.013846
     9  N    0.000315   0.000492   0.002729  -0.014998  -0.001625   0.004412
    10  N    0.000491  -0.000209   0.000305   0.005243  -0.001268   0.003725
    11  C    0.002725   0.000310  -0.001071   0.021076  -0.008995  -0.031684
    12  H    0.000315  -0.027316   0.446413  -0.076339   0.006557   0.009453
    13  H   -0.000389   0.000187  -0.001690  -0.051060   0.004230   0.451918
    14  H   -0.002533  -0.000424   0.002734  -0.061234   0.005208   0.451819
    15  H    0.000979  -0.000260  -0.000065   0.005662  -0.003986   0.009448
               7          8          9         10         11         12
     1  N   -0.015000  -0.001643   0.000315   0.000491   0.002725   0.000315
     2  N    0.005242  -0.001261   0.000492  -0.000209   0.000310  -0.027316
     3  C    0.021150  -0.009023   0.002729   0.000305  -0.001071   0.446413
     4  N   -0.178344   0.034430  -0.014998   0.005243   0.021076  -0.076339
     5  N    0.034583   0.000746  -0.001625  -0.001268  -0.008995   0.006557
     6  C    0.099973  -0.013846   0.004412   0.003725  -0.031684   0.009453
     7  N    7.115104   0.109748  -0.084941  -0.014715   0.070957   0.005694
     8  N    0.109748   6.633809   0.396642  -0.062322  -0.047467  -0.004010
     9  N   -0.084941   0.396642   6.506192   0.307151  -0.013078   0.000987
    10  N   -0.014715  -0.062322   0.307151   6.690436   0.269392  -0.000263
    11  C    0.070957  -0.047467  -0.013078   0.269392   5.286622  -0.000064
    12  H    0.005694  -0.004010   0.000987  -0.000263  -0.000064   0.441426
    13  H   -0.061327   0.005241  -0.002548  -0.000421   0.002733  -0.000072
    14  H   -0.051002   0.004263  -0.000395   0.000189  -0.001704  -0.000097
    15  H   -0.076353   0.006541   0.000335  -0.027335   0.446443  -0.000002
              13         14         15
     1  N   -0.000389  -0.002533   0.000979
     2  N    0.000187  -0.000424  -0.000260
     3  C   -0.001690   0.002734  -0.000065
     4  N   -0.051060  -0.061234   0.005662
     5  N    0.004230   0.005208  -0.003986
     6  C    0.451918   0.451819   0.009448
     7  N   -0.061327  -0.051002  -0.076353
     8  N    0.005241   0.004263   0.006541
     9  N   -0.002548  -0.000395   0.000335
    10  N   -0.000421   0.000189  -0.027335
    11  C    0.002733  -0.001704   0.446443
    12  H   -0.000072  -0.000097  -0.000002
    13  H    0.437554  -0.005331  -0.000097
    14  H   -0.005331   0.437505  -0.000074
    15  H   -0.000097  -0.000074   0.441508
 Mulliken charges:
               1
     1  N   -0.101926
     2  N   -0.170350
     3  C    0.003744
     4  N    0.019410
     5  N   -0.051670
     6  C   -0.235051
     7  N    0.019230
     8  N   -0.051849
     9  N   -0.101669
    10  N   -0.170398
    11  C    0.003807
    12  H    0.197319
    13  H    0.221072
    14  H    0.221075
    15  H    0.197256
 Sum of Mulliken charges =   0.00000
 Mulliken charges with hydrogens summed into heavy atoms:
               1
     1  N   -0.101926
     2  N   -0.170350
     3  C    0.201063
     4  N    0.019410
     5  N   -0.051670
     6  C    0.207096
     7  N    0.019230
     8  N   -0.051849
     9  N   -0.101669
    10  N   -0.170398
    11  C    0.201063
 Electronic spatial extent (au):  <R**2>=           1675.3377
 Charge=              0.0000 electrons
 Dipole moment (field-independent basis, Debye):
    X=             -0.0035    Y=              0.0130    Z=             -4.8541  Tot=              4.8541
 Quadrupole moment (field-independent basis, Debye-Ang):
   XX=            -89.7817   YY=            -60.8160   ZZ=            -61.1163
   XY=             -7.7807   XZ=             -0.0121   YZ=              0.0000
 Traceless Quadrupole moment (field-independent basis, Debye-Ang):
   XX=            -19.2104   YY=              9.7553   ZZ=              9.4550
   XY=             -7.7807   XZ=             -0.0121   YZ=              0.0000
 Octapole moment (field-independent basis, Debye-Ang**2):
  XXX=             -0.0302  YYY=              0.0437  ZZZ=            -15.8112  XYY=             -0.0364
  XXY=              0.0730  XXZ=            -32.5305  XZZ=              0.0177  YZZ=              0.0204
  YYZ=             -4.1503  XYZ=              4.2946
 Hexadecapole moment (field-independent basis, Debye-Ang**3):
 XXXX=          -2006.5178 YYYY=           -292.0571 ZZZZ=           -223.0091 XXXY=             -5.4658
 XXXZ=              0.0104 YYYX=            -37.7001 YYYZ=              0.0442 ZZZX=              0.0341
 ZZZY=             -0.0251 XXYY=           -370.8340 XXZZ=           -358.0241 YYZZ=            -93.6536
 XXYZ=              0.0240 YYXZ=             -0.0867 ZZXY=              6.1064
 N-N= 5.890469272604D+02 E-N=-2.470040607005D+03  KE= 5.517924489004D+02
 Breneman (CHELPG) radii used.
 Generate Potential Derived Charges using the Breneman model, NDens= 1.
 Grid spacing= 0.300 Box extension= 2.800
 NStep X,Y,Z=   39     34     29   Total possible points=       38454
 Number of Points to Fit=   10374

 **********************************************************************

            Electrostatic Properties Using The SCF Density

 **********************************************************************

       Atomic Center    1 is at   2.831847  0.702524  0.601011
       Atomic Center    2 is at   2.803865 -0.644940  0.821941
       Atomic Center    3 is at   1.782454 -1.101854  0.130143
       Atomic Center    4 is at   1.198760 -0.064938 -0.513255
       Atomic Center    5 is at   1.878483  1.066428 -0.186286
       Atomic Center    6 is at   0.000033  0.003307 -1.323825
       Atomic Center    7 is at  -1.198841  0.067471 -0.513148
       Atomic Center    8 is at  -1.877439 -1.065749 -0.190326
       Atomic Center    9 is at  -2.830576 -0.705811  0.599073
       Atomic Center   10 is at  -2.804671  0.641042  0.823955
       Atomic Center   11 is at  -1.783745  1.101496  0.133796
       Atomic Center   12 is at   1.443809 -2.125483  0.072256
       Atomic Center   13 is at  -0.073373 -0.887042 -1.948797
       Atomic Center   14 is at   0.073567  0.896893 -1.944138
       Atomic Center   15 is at  -1.446449  2.125753  0.079241
   10374 points will be used for fitting atomic charges
 Fitting point charges to electrostatic potential
 Charges from ESP fit, RMS=   0.00613 RRMS=   0.21223:
 ESP charges:
               1
     1  N   -0.039363
     2  N   -0.349586
     3  C    0.214491
     4  N    0.542768
     5  N   -0.311510
     6  C   -0.777868
     7  N    0.543628
     8  N   -0.311905
     9  N   -0.039277
    10  N   -0.350888
    11  C    0.217147
    12  H    0.074176
    13  H    0.257627
    14  H    0.257577
    15  H    0.072983
 Sum of ESP charges =   0.00000
 ESP charges with hydrogens summed into heavy atoms:
               1
     1  N   -0.039363
     2  N   -0.349586
     3  C    0.288667
     4  N    0.542768
     5  N   -0.311510
     6  C   -0.262664
     7  N    0.543628
     8  N   -0.311905
     9  N   -0.039277
    10  N   -0.350888
    11  C    0.290130
 Charge=   0.00000 Dipole=    -0.0023     0.0120    -4.6531 Tot=     4.6531
 -----------------------------------------------------------------

              Electrostatic Properties (Atomic Units)

 -----------------------------------------------------------------
    Center     Electric         -------- Electric Field --------
               Potential          X             Y             Z
 -----------------------------------------------------------------
    1 Atom    -18.306157      0.026549      0.024403      0.015843
    2 Atom    -18.338479      0.019267     -0.018001      0.017911
    3 Atom    -14.653260      0.005682      0.002916      0.004329
    4 Atom    -18.241974      0.002136     -0.003517      0.001443
    5 Atom    -18.288597     -0.003846      0.034708     -0.008613
    6 Atom    -14.600831      0.000000      0.000025     -0.009383
    7 Atom    -18.241957     -0.002142      0.003511      0.001451
    8 Atom    -18.288580      0.003898     -0.034675     -0.008715
    9 Atom    -18.306136     -0.026526     -0.024488      0.015754
   10 Atom    -18.338460     -0.019280      0.017914      0.017983
   11 Atom    -14.653233     -0.005684     -0.002939      0.004312
   12 Atom     -1.012144     -0.004927     -0.015442     -0.000720
   13 Atom     -1.012726     -0.001282     -0.013523     -0.009187
   14 Atom     -1.012711      0.001289      0.013568     -0.009122
   15 Atom     -1.012113      0.004907      0.015449     -0.000669
 -----------------------------------------------------------------
 -----------------------------------------------------
    Center         ---- Electric Field Gradient ----
                     XX            YY            ZZ
 -----------------------------------------------------
    1 Atom     -834.530928   -834.748877   -835.047566
    2 Atom     -833.686029   -834.393562   -833.909201
    3 Atom     -511.978521   -511.850467   -512.111434
    4 Atom     -831.187695   -831.491720   -830.874263
    5 Atom     -835.038500   -834.172908   -834.836187
    6 Atom     -511.407559   -510.678917   -511.099071
    7 Atom     -831.187670   -831.491786   -830.874138
    8 Atom     -835.036919   -834.177890   -834.832098
    9 Atom     -834.532968   -834.744313   -835.050485
   10 Atom     -833.685073   -834.396930   -833.906585
   11 Atom     -511.979032   -511.849568   -512.111762
   12 Atom       -1.679211     -2.047139     -1.633361
   13 Atom       -1.687084     -1.956715     -1.815962
   14 Atom       -1.687081     -1.958824     -1.813836
   15 Atom       -1.678892     -2.047666     -1.633224
 -----------------------------------------------------
 -----------------------------------------------------
    Center         ---- Electric Field Gradient ----
                     XY            XZ            YZ
 -----------------------------------------------------
    1 Atom        0.707652      0.441233      0.430546
    2 Atom       -0.430215      0.650803     -0.330423
    3 Atom        0.173673      0.120501      0.075628
    4 Atom       -0.170480     -0.378622      0.020251
    5 Atom       -0.552608      0.018331     -0.573262
    6 Atom        0.066371      0.000148      0.001075
    7 Atom       -0.171752      0.377794     -0.022526
    8 Atom       -0.553498     -0.020856      0.575449
    9 Atom        0.709327     -0.438476     -0.430260
   10 Atom       -0.426768     -0.652597      0.328423
   11 Atom        0.173947     -0.119860     -0.074882
   12 Atom       -0.136263     -0.016603     -0.023100
   13 Atom       -0.018932     -0.016212     -0.203971
   14 Atom       -0.019047      0.016137      0.203226
   15 Atom       -0.135842      0.016131      0.021774
 -----------------------------------------------------
 -----------------------------------------------------
    Center         ---- Electric Field Gradient ----
                   ----       Eigenvalues       ----
 -----------------------------------------------------
    1 Atom     -835.378114   -835.296823   -833.652434
    2 Atom     -834.598818   -834.454159   -832.935815
    3 Atom     -512.185180   -512.067093   -511.688149
    4 Atom     -831.606853   -831.340018   -830.606806
    5 Atom     -835.437678   -834.946580   -833.663338
    6 Atom     -511.413555   -511.099074   -510.672918
    7 Atom     -831.606797   -831.339981   -830.606816
    8 Atom     -835.437398   -834.946332   -833.663178
    9 Atom     -835.378253   -835.297030   -833.652483
   10 Atom     -834.598735   -834.454066   -832.935786
   11 Atom     -512.185129   -512.067083   -511.688151
   12 Atom       -2.093709     -1.641604     -1.624400
   13 Atom       -2.103589     -1.685922     -1.670250
   14 Atom       -2.103583     -1.685915     -1.670243
   15 Atom       -2.093739     -1.641625     -1.624418
 -----------------------------------------------------
 -----------------------------------------------------
    Center         ---- Electric Field Gradient ----
                       ( tensor representation )
                   3XX-RR        3YY-RR        3ZZ-RR
 -----------------------------------------------------
    1 Atom        0.244862      0.026913     -0.271776
    2 Atom        0.310235     -0.397298      0.087063
    3 Atom        0.001620      0.129674     -0.131294
    4 Atom       -0.003135     -0.307161      0.310297
    5 Atom       -0.355969      0.509624     -0.153655
    6 Atom       -0.345710      0.382932     -0.037222
    7 Atom       -0.003139     -0.307254      0.310393
    8 Atom       -0.354616      0.504412     -0.149796
    9 Atom        0.242954      0.031609     -0.274563
   10 Atom        0.311123     -0.400734      0.089611
   11 Atom        0.001088      0.130552     -0.131641
   12 Atom        0.107359     -0.260569      0.153209
   13 Atom        0.132836     -0.136795      0.003958
   14 Atom        0.132833     -0.138910      0.006078
   15 Atom        0.107702     -0.261072      0.153370
 -----------------------------------------------------
 -----------------------------------------------------
    Center         ---- Electric Field Gradient ----
                       ( tensor representation )
                   ----       Eigenvalues       ----
 -----------------------------------------------------
    1 Atom       -0.602324     -0.521033      1.123356
    2 Atom       -0.602554     -0.457895      1.060449
    3 Atom       -0.205039     -0.086952      0.291992
    4 Atom       -0.422294     -0.155459      0.577753
    5 Atom       -0.755146     -0.264048      1.019194
    6 Atom       -0.351706     -0.037225      0.388931
    7 Atom       -0.422265     -0.155450      0.577715
    8 Atom       -0.755095     -0.264029      1.019124
    9 Atom       -0.602331     -0.521108      1.123439
   10 Atom       -0.602540     -0.457870      1.060410
   11 Atom       -0.205008     -0.086962      0.291970
   12 Atom       -0.307138      0.144967      0.162171
   13 Atom       -0.283668      0.133999      0.149670
   14 Atom       -0.283670      0.133999      0.149670
   15 Atom       -0.307145      0.144969      0.162176
 -----------------------------------------------------
 1\1\GINC-LP057\SP\RM062X\Gen\C3H4N8\U6023034\09-Apr-2021\0\\# M062X/de
 f2TZVP extrabasis empiricaldispersion=GD3 int=(grid=ultrafine) prop=(e
 fg) pop=chelpg guess=read geom=check\\Klapotke02_TZ01_1.mol\\0,1\N,0,-
 2.4155883009,-1.1965968787,-1.3879800443\N,0,-2.9727271767,-0.14525194
 53,-0.7175146977\C,0,-1.9762862839,0.6605200869,-0.4200687223\N,0,-0.8
 312184064,0.1276489814,-0.9045493256\N,0,-1.1397255655,-1.0541249434,-
 1.5021743628\C,0,0.5481319627,0.5518427102,-0.7777419312\N,0,1.1194239
 947,0.1627228943,0.4953739668\N,0,1.1030474339,1.0186366443,1.55180163
 86\N,0,1.5927661879,0.3701191561,2.5521902662\N,0,1.9294990143,-0.9051
 847218,2.1979798788\C,0,1.6223565063,-1.0177008058,0.923761986\H,0,-2.
 0350851011,1.5926729435,0.1216698408\H,0,0.60725689,1.6383783667,-0.84
 58893073\H,0,1.1097010061,0.0899267787,-1.59012457\H,0,1.7383978386,-1
 .8936592671,0.303215384\\Version=EM64L-G09RevD.01\State=1-A\HF=-554.61
 9592\RMSD=2.436e-09\Dipole=0.9531758,0.957883,-1.3494715\Quadrupole=-3
 .1968999,6.491911,-3.295011,-4.9580618,-10.73505,-3.8771431\PG=C01 [X(
 C3H4N8)]\\@


 WE MIGHT AS WELL ATTEMPT TO INTRODUCE A NEW PLANET 
 INTO THE SOLAR SYSTEM, OR TO ANNIHILATE ONE ALREADYIN EXISTENCE, 
 AS TO CREATE OR DESTROY A PARTICLE OF HYDROGEN.
 ALL THE CHANGES WE CAN PRODUCE CONSIST IN SEPARATING PARTICLES
 THAT ARE IN A STATE OF ... COMBINATION, AND JOINING 
 THOSE THAT WERE PREVIOUSLY AT A DISTANCE.

                                    -- JOHN DALTON, 1810
 Job cpu time:       0 days  0 hours  6 minutes  0.9 seconds.
 File lengths (MBytes):  RWF=     82 Int=      0 D2E=      0 Chk=     12 Scr=      1
 Normal termination of Gaussian 09 at Fri Apr  9 08:40:14 2021.
